 vasp.5.4.4.18Apr17-6-g9f103f2a35 (build Feb 25 2019 10:51:38) complex          
  
 executed on             LinuxIFC date 2020.03.19  20:28:29
 running on   24 total cores
 distrk:  each k-point on   24 cores,    1 groups
 distr:  one band on NCORES_PER_BAND=  24 cores,    1 groups


--------------------------------------------------------------------------------------------------------


 INCAR:
 POTCAR:    PAW_PBE H 15Jun2001                   
 POTCAR:    PAW_PBE O 08Apr2002                   
 POTCAR:    PAW_PBE Pt 04Feb2005                  

 ----------------------------------------------------------------------------- 
|                                                                             |
|           W    W    AA    RRRRR   N    N  II  N    N   GGGG   !!!           |
|           W    W   A  A   R    R  NN   N  II  NN   N  G    G  !!!           |
|           W    W  A    A  R    R  N N  N  II  N N  N  G       !!!           |
|           W WW W  AAAAAA  RRRRR   N  N N  II  N  N N  G  GGG   !            |
|           WW  WW  A    A  R   R   N   NN  II  N   NN  G    G                |
|           W    W  A    A  R    R  N    N  II  N    N   GGGG   !!!           |
|                                                                             |
|      For optimal performance we recommend to set                            |
|        NCORE= 4 - approx SQRT( number of cores)                             |
|      NCORE specifies how many cores store one orbital (NPAR=cpu/NCORE).     |
|      This setting can  greatly improve the performance of VASP for DFT.     |
|      The default,   NCORE=1            might be grossly inefficient         |
|      on modern multi-core architectures or massively parallel machines.     |
|      Do your own testing !!!!                                               |
|      Unfortunately you need to use the default for GW and RPA calculations. |
|      (for HF NCORE is supported but not extensively tested yet)             |
|                                                                             |
 ----------------------------------------------------------------------------- 

 POTCAR:    PAW_PBE H 15Jun2001                   
   VRHFIN =H: ultrasoft test                                                    
   LEXCH  = PE                                                                  
   EATOM  =    12.4884 eV,    0.9179 Ry                                         
                                                                                
   TITEL  = PAW_PBE H 15Jun2001                                                 
   LULTRA =        F    use ultrasoft PP ?                                      
   IUNSCR =        0    unscreen: 0-lin 1-nonlin 2-no                           
   RPACOR =    0.000    partial core radius                                     
   POMASS =    1.000; ZVAL   =    1.000    mass and valenz                      
   RCORE  =    1.100    outmost cutoff radius                                   
   RWIGS  =    0.700; RWIGS  =    0.370    wigner-seitz radius (au A)           
   ENMAX  =  250.000; ENMIN  =  200.000 eV                                      
   RCLOC  =    0.701    cutoff for local pot                                    
   LCOR   =        T    correct aug charges                                     
   LPAW   =        T    paw PP                                                  
   EAUG   =  400.000                                                            
   RMAX   =    1.123    core radius for proj-oper                               
   RAUG   =    1.200    factor for augmentation sphere                          
   RDEP   =    1.112    radius for radial grids                                 
   RDEPT  =    0.926    core radius for aug-charge                              
                                                                                
   Atomic configuration                                                         
    2 entries                                                                   
     n  l   j            E        occ.                                          
     1  0  0.50        -6.4927   1.0000                                         
     2  1  0.50        -3.4015   0.0000                                         
   Description                                                                  
     l       E           TYP  RCUT    TYP  RCUT                                 
     0     -6.4927494     23  1.100                                             
     0      6.8029130     23  1.100                                             
     1     -4.0817478     23  1.100                                             
  local pseudopotential read in
  atomic valenz-charges read in
  non local Contribution for L=           0  read in
    real space projection operators read in
  non local Contribution for L=           0  read in
    real space projection operators read in
  non local Contribution for L=           1  read in
    real space projection operators read in
    PAW grid and wavefunctions read in
 
   number of l-projection  operators is LMAX  =           3
   number of lm-projection operators is LMMAX =           5
 
 POTCAR:    PAW_PBE O 08Apr2002                   
   VRHFIN =O: s2p4                                                              
   LEXCH  = PE                                                                  
   EATOM  =   432.3788 eV,   31.7789 Ry                                         
                                                                                
   TITEL  = PAW_PBE O 08Apr2002                                                 
   LULTRA =        F    use ultrasoft PP ?                                      
   IUNSCR =        1    unscreen: 0-lin 1-nonlin 2-no                           
   RPACOR =    1.200    partial core radius                                     
   POMASS =   16.000; ZVAL   =    6.000    mass and valenz                      
   RCORE  =    1.520    outmost cutoff radius                                   
   RWIGS  =    1.550; RWIGS  =    0.820    wigner-seitz radius (au A)           
   ENMAX  =  400.000; ENMIN  =  300.000 eV                                      
   ICORE  =        2    local potential                                         
   LCOR   =        T    correct aug charges                                     
   LPAW   =        T    paw PP                                                  
   EAUG   =  605.392                                                            
   DEXC   =    0.000                                                            
   RMAX   =    1.553    core radius for proj-oper                               
   RAUG   =    1.300    factor for augmentation sphere                          
   RDEP   =    1.550    radius for radial grids                                 
   RDEPT  =    1.329    core radius for aug-charge                              
                                                                                
   Atomic configuration                                                         
    4 entries                                                                   
     n  l   j            E        occ.                                          
     1  0  0.50      -514.6923   2.0000                                         
     2  0  0.50       -23.9615   2.0000                                         
     2  1  0.50        -9.0305   4.0000                                         
     3  2  1.50        -9.5241   0.0000                                         
   Description                                                                  
     l       E           TYP  RCUT    TYP  RCUT                                 
     0    -23.9615318     23  1.200                                             
     0     -9.5240782     23  1.200                                             
     1     -9.0304911     23  1.520                                             
     1      8.1634956     23  1.520                                             
     2     -9.5240782      7  1.500                                             
  local pseudopotential read in
  partial core-charges read in
  partial kinetic energy density read in
  kinetic energy density of atom read in
  atomic valenz-charges read in
  non local Contribution for L=           0  read in
    real space projection operators read in
  non local Contribution for L=           0  read in
    real space projection operators read in
  non local Contribution for L=           1  read in
    real space projection operators read in
  non local Contribution for L=           1  read in
    real space projection operators read in
    PAW grid and wavefunctions read in
 
   number of l-projection  operators is LMAX  =           4
   number of lm-projection operators is LMMAX =           8
 
 POTCAR:    PAW_PBE Pt 04Feb2005                  
   VRHFIN =Pt: s1d9                                                             
   LEXCH  = PE                                                                  
   EATOM  =   729.1176 eV,   53.5886 Ry                                         
                                                                                
   TITEL  = PAW_PBE Pt 04Feb2005                                                
   LULTRA =        F    use ultrasoft PP ?                                      
   IUNSCR =        1    unscreen: 0-lin 1-nonlin 2-no                           
   RPACOR =    2.330    partial core radius                                     
   POMASS =  195.080; ZVAL   =   10.000    mass and valenz                      
   RCORE  =    2.600    outmost cutoff radius                                   
   RWIGS  =    2.750; RWIGS  =    1.455    wigner-seitz radius (au A)           
   ENMAX  =  230.283; ENMIN  =  172.712 eV                                      
   ICORE  =        3    local potential                                         
   LCOR   =        T    correct aug charges                                     
   LPAW   =        T    paw PP                                                  
   EAUG   =  358.966                                                            
   DEXC   =    0.000                                                            
   RMAX   =    2.658    core radius for proj-oper                               
   RAUG   =    1.300    factor for augmentation sphere                          
   RDEP   =    2.761    radius for radial grids                                 
   RDEPT  =    2.203    core radius for aug-charge                              
                                                                                
   Atomic configuration                                                         
   16 entries                                                                   
     n  l   j            E        occ.                                          
     1  0  0.50    -78401.1885   2.0000                                         
     2  0  0.50    -13770.7750   2.0000                                         
     2  1  1.50    -11931.0468   6.0000                                         
     3  0  0.50     -3234.7234   2.0000                                         
     3  1  1.50     -2699.2216   6.0000                                         
     3  2  2.50     -2119.5714  10.0000                                         
     4  0  0.50      -695.1528   2.0000                                         
     4  1  1.50      -519.6034   6.0000                                         
     4  2  2.50      -306.6786  10.0000                                         
     4  3  3.50       -70.1041  14.0000                                         
     5  0  0.50      -101.7747   2.0000                                         
     5  1  1.50       -55.9873   6.0000                                         
     5  2  2.50        -6.1423   9.0000                                         
     6  0  0.50        -5.6573   1.0000                                         
     6  1  1.50        -6.8029   0.0000                                         
     5  3  2.50        -1.3606   0.0000                                         
   Description                                                                  
     l       E           TYP  RCUT    TYP  RCUT                                 
     2     -6.1423404     23  2.500                                             
     2     -7.5029230     23  2.500                                             
     0     -5.6573207     23  2.500                                             
     0      0.7416693     23  2.500                                             
     1     -2.7211652     23  2.600                                             
     1     20.4087390     23  2.600                                             
     3     -1.3605826     23  2.500                                             
  local pseudopotential read in
  partial core-charges read in
  partial kinetic energy density read in
  atomic valenz-charges read in
  non local Contribution for L=           2  read in
    real space projection operators read in
  non local Contribution for L=           2  read in
    real space projection operators read in
  non local Contribution for L=           0  read in
    real space projection operators read in
  non local Contribution for L=           0  read in
    real space projection operators read in
  non local Contribution for L=           1  read in
    real space projection operators read in
  non local Contribution for L=           1  read in
    real space projection operators read in
    PAW grid and wavefunctions read in
 
   number of l-projection  operators is LMAX  =           6
   number of lm-projection operators is LMMAX =          18
 
 Optimization of the real space projectors (new method)

 maximal supplied QI-value         = 34.20
 optimisation between [QCUT,QGAM] = [  9.92, 20.18] = [ 27.55,114.04] Ry 
 Optimized for a Real-space Cutoff    1.26 Angstroem

   l    n(q)    QCUT    max X(q) W(low)/X(q) W(high)/X(q)  e(spline) 
   0      8     9.919    19.460    0.50E-03    0.23E-03    0.29E-06
   0      8     9.919    12.209    0.48E-03    0.23E-03    0.28E-06
   1      7     9.919     4.655    0.17E-03    0.75E-03    0.30E-06
 Optimization of the real space projectors (new method)

 maximal supplied QI-value         = 24.76
 optimisation between [QCUT,QGAM] = [ 10.15, 20.30] = [ 28.85,115.39] Ry 
 Optimized for a Real-space Cutoff    1.38 Angstroem

   l    n(q)    QCUT    max X(q) W(low)/X(q) W(high)/X(q)  e(spline) 
   0      8    10.150    20.381    0.22E-03    0.32E-03    0.29E-06
   0      8    10.150    15.268    0.23E-03    0.35E-03    0.30E-06
   1      8    10.150     5.964    0.46E-03    0.53E-03    0.21E-06
   1      8    10.150     5.382    0.38E-03    0.45E-03    0.19E-06
 Optimization of the real space projectors (new method)

 maximal supplied QI-value         = 14.36
 optimisation between [QCUT,QGAM] = [ 10.20, 20.39] = [ 29.12,116.47] Ry 
 Optimized for a Real-space Cutoff    1.51 Angstroem

   l    n(q)    QCUT    max X(q) W(low)/X(q) W(high)/X(q)  e(spline) 
   2      8    10.197    66.195    0.45E-03    0.45E-03    0.14E-06
   2      8    10.197    64.643    0.46E-03    0.46E-03    0.14E-06
   0      9    10.197    95.520    0.15E-03    0.11E-03    0.54E-07
   0      9    10.197    63.403    0.15E-03    0.11E-03    0.52E-07
   1      9    10.197    19.961    0.13E-03    0.17E-03    0.77E-07
   1      9    10.197    13.289    0.10E-03    0.15E-03    0.67E-07

 ----------------------------------------------------------------------------- 
|                                                                             |
|  ADVICE TO THIS USER RUNNING 'VASP/VAMP'   (HEAR YOUR MASTER'S VOICE ...):  |
|                                                                             |
|      You enforced a specific xc-type in the INCAR file,                     |
|      a different type was found on the POTCAR file                          |
|          I HOPE YOU KNOW, WHAT YOU ARE  DOING                               |
|                                                                             |
 ----------------------------------------------------------------------------- 

  PAW_PBE H 15Jun2001                   :
 energy of atom  1       EATOM=  -12.4884
 kinetic energy error for atom=    0.0098 (will be added to EATOM!!)
  PAW_PBE O 08Apr2002                   :
 energy of atom  2       EATOM= -432.3788
 kinetic energy error for atom=    0.1156 (will be added to EATOM!!)
  PAW_PBE Pt 04Feb2005                  :
 energy of atom  3       EATOM= -729.1176
 kinetic energy error for atom=    0.0056 (will be added to EATOM!!)
 
 
 POSCAR:  H  O Pt                                
  positions in direct lattice
  velocities in cartesian coordinates
 
  Using predictor-coordinates on the file
 exchange correlation table for  LEXCH =        9
   RHO(1)=    0.500       N(1)  =     2000
   RHO(2)=  100.500       N(2)  =     4000

 VTST: version 3.2, (02/03/18)

 CHAIN: initializing optimizer
 
 OPT: Using VASP Dynamics algorithm
 CHAIN: Read ICHAIN            0
 
 POSCAR:  H  O Pt                                
  positions in direct lattice
  velocities in cartesian coordinates
 
  There are predictor-coordinates on the file.
  we can't use them due to change of POTIM!
 


--------------------------------------------------------------------------------------------------------


 ion  position               nearest neighbor table
   1  0.213  0.455  0.508-  49 0.97
   2  0.213  0.483  0.462-  49 0.96
   3  0.768  0.844  0.464-  50 0.96
   4  0.790  0.685  0.474-  50 0.95
   5  0.619  0.983  0.509-  51 0.99
   6  0.601  0.051  0.465-  51 1.01
   7  0.057  0.722  0.456-  52 1.03
   8  0.227  0.813  0.459-  52 1.10
   9  0.310  0.217  0.674-  53 1.00
  10  0.394  0.080  0.678-  53 1.00
  11  0.788  0.537  0.592-  54 1.01
  12  0.777  0.694  0.597-  54 0.98
  13  0.869  0.415  0.757-  55 1.01
  14  0.758  0.359  0.722-  55 0.98
  15  0.462  0.797  0.696-  56 1.04
  16  0.598  0.912  0.701-  56 0.94
  17  0.458  0.727  0.618-  69 0.98
  18  0.234  0.142  0.563-  57 0.97
  19  0.201  0.823  0.635-  58 1.02
  20  0.153  0.931  0.673-  58 0.97
  21  0.671  0.533  0.657-  59 1.00
  22  0.560  0.396  0.667-  59 0.97
  23  0.796  0.051  0.626-  60 0.97
  24  0.630  0.107  0.639-  60 1.01
  25  0.818  0.145  0.496-  61 0.99
  26  0.971  0.188  0.469-  61 1.01
  27  0.260  0.044  0.467-  62 0.97
  28  0.277  0.990  0.511-  62 1.00
  29  0.956  0.853  0.622-  63 0.99
  30  0.978  0.914  0.582-  63 1.00
  31  0.492  0.392  0.477-  64 0.96
  32  0.607  0.282  0.459-  64 0.99
  33  0.858  0.315  0.555-  65 1.00
  34  0.855  0.264  0.602-  65 1.04
  35  0.460  0.210  0.585-  66 0.97
  36  0.475  0.275  0.543-  66 0.97
  37  0.266  0.426  0.589-  67 0.97
  38  0.090  0.442  0.583-  67 0.99
  39  0.064  0.163  0.711-  68 0.97
  40  0.943  0.131  0.679-  68 0.96
  41  0.087  0.125  0.538-  57 0.97
  42  0.327  0.680  0.586-  69 0.98
  43  0.726  0.442  0.505-  70 1.02
  44  0.720  0.564  0.535-  70 0.96
  45  0.494  0.912  0.574-  71 0.98
  46  0.673  0.976  0.578-  71 1.02
  47  0.278  0.647  0.694-  72 0.99
  48  0.448  0.576  0.695-  72 0.98
  49  0.237  0.413  0.482-   2 0.96   1 0.97
  50  0.829  0.761  0.459-   4 0.95   3 0.96 108 2.49
  51  0.677  0.994  0.483-   5 0.99   6 1.01
  52  0.176  0.713  0.449-   7 1.03   8 1.10 106 2.20
  53  0.412  0.172  0.665-   9 1.00  10 1.00
  54  0.713  0.611  0.603-  12 0.98  11 1.01
  55  0.841  0.327  0.741-  14 0.98  13 1.01
  56  0.511  0.887  0.683-  16 0.94  15 1.04
  57  0.155  0.073  0.556-  18 0.97  41 0.97
  58  0.124  0.847  0.658-  20 0.97  19 1.02
  59  0.620  0.473  0.679-  22 0.97  21 1.00
  60  0.748  0.129  0.640-  23 0.97  24 1.01
  61  0.932  0.169  0.498-  25 0.99  26 1.01
  62  0.296  0.963  0.481-  27 0.97  28 1.00
  63  0.888  0.873  0.598-  29 0.99  30 1.00
  64  0.574  0.327  0.484-  31 0.96  32 0.99
  65  0.881  0.348  0.584-  33 1.00  34 1.04
  66  0.417  0.285  0.569-  35 0.97  36 0.97
  67  0.190  0.498  0.581-  37 0.97  38 0.99
  68  0.057  0.128  0.683-  40 0.96  39 0.97
  69  0.363  0.757  0.603-  17 0.98  42 0.98
  70  0.779  0.534  0.512-  44 0.96  43 1.02
  71  0.560  0.992  0.567-  45 0.98  46 1.02
  72  0.390  0.659  0.703-  48 0.98  47 0.99
  73  0.167  0.083  0.241-  94 2.78  86 2.78  85 2.78  77 2.78  74 2.78  76 2.78  83 2.78  82 2.78
                            75 2.78
  74  0.500  0.083  0.241-  95 2.78  87 2.78  86 2.78  75 2.78  73 2.78  78 2.78  77 2.78  84 2.78
                            83 2.78
  75  0.833  0.083  0.241-  96 2.78  87 2.78  85 2.78  78 2.78  74 2.78  76 2.78  84 2.78  82 2.78
                            73 2.78
  76  0.000  0.333  0.241-  85 2.78  88 2.78  90 2.78  78 2.78  77 2.78  75 2.78  73 2.78  81 2.78
                            79 2.78
  77  0.333  0.333  0.241-  86 2.78  88 2.78  89 2.78  73 2.78  76 2.78  79 2.78  74 2.78  80 2.78
                            78 2.78
  78  0.667  0.333  0.241-  87 2.78  90 2.78  89 2.78  75 2.78  76 2.78  81 2.78  74 2.78  80 2.78
                            77 2.78
  79  0.167  0.583  0.241-  88 2.78  92 2.78  91 2.78  80 2.78  83 2.78  77 2.78  76 2.78  82 2.78
                            81 2.78
  80  0.500  0.583  0.241-  89 2.78  92 2.78  93 2.78  81 2.78  79 2.78  84 2.78  77 2.78  78 2.78
                            83 2.78
  81  0.833  0.583  0.241-  90 2.78  93 2.78  91 2.78  80 2.78  84 2.78  78 2.78  76 2.78  82 2.78
                            79 2.78
  82  0.000  0.833  0.241-  91 2.78  94 2.78  96 2.78  84 2.78  83 2.78  81 2.78  79 2.78  75 2.78
                            73 2.78
  83  0.333  0.833  0.241-  92 2.78  94 2.78  95 2.78  82 2.78  79 2.78  73 2.78  80 2.78  74 2.78
                            84 2.78
  84  0.667  0.833  0.241-  93 2.78  96 2.78  95 2.78  82 2.78  81 2.78  75 2.78  80 2.78  74 2.78
                            83 2.78
  85  0.000  0.167  0.311-  76 2.78  75 2.78  73 2.78  86 2.78  87 2.78  88 2.78  90 2.78  94 2.78
                            96 2.78 102 2.80  97 2.87 100 2.94
  86  0.333  0.167  0.311-  77 2.78  73 2.78  74 2.78  85 2.78  88 2.78  94 2.78  89 2.78  95 2.78
                            87 2.78  98 2.90 101 2.93 100 3.01
  87  0.667  0.167  0.311-  78 2.78  75 2.78  74 2.78  85 2.78  90 2.78  96 2.78  95 2.78  89 2.78
                            86 2.78 102 2.79  99 2.81 101 2.87
  88  0.167  0.417  0.311- 104 2.67  79 2.78  77 2.78  76 2.78  89 2.78  92 2.78  86 2.78  85 2.78
                            91 2.78  90 2.78 100 3.01 103 3.03
  89  0.500  0.417  0.311-  80 2.78  78 2.78  77 2.78  88 2.78  90 2.78  86 2.78  87 2.78  92 2.78
                            93 2.78 104 2.84 101 2.86 105 2.88
  90  0.833  0.417  0.311-  81 2.78  78 2.78  76 2.78  89 2.78  87 2.78  93 2.78  91 2.78  85 2.78
                            88 2.78 103 2.82 102 2.88 105 3.05
  91  0.000  0.667  0.311- 106 2.73  82 2.78  79 2.78  81 2.78  93 2.78  92 2.78  90 2.78  94 2.78
                            96 2.78  88 2.78 108 2.90 103 3.00
  92  0.333  0.667  0.311-  83 2.78  79 2.78  80 2.78  91 2.78  88 2.78  94 2.78  89 2.78  95 2.78
                            93 2.78 107 2.80 106 2.83 104 2.85
  93  0.667  0.667  0.311-  84 2.78  81 2.78  80 2.78  91 2.78  90 2.78  96 2.78  95 2.78  89 2.78
                            92 2.78 108 2.78 105 2.85 107 2.93
  94  0.167  0.917  0.311-  73 2.78  83 2.78  82 2.78  95 2.78  92 2.78  86 2.78  85 2.78  91 2.78
                            96 2.78 106 2.86  98 2.89  97 2.94
  95  0.500  0.917  0.311-  74 2.78  83 2.78  84 2.78  94 2.78  96 2.78  92 2.78  93 2.78  86 2.78
                            87 2.78  98 2.79  99 2.82 107 2.83
  96  0.833  0.917  0.311-  75 2.78  84 2.78  82 2.78  95 2.78  93 2.78  87 2.78  85 2.78  91 2.78
                            94 2.78 108 2.80  99 2.80  97 2.93
  97  0.999  0.008  0.386- 102 2.63 100 2.66  99 2.75 108 2.86  85 2.87  98 2.90 106 2.90  96 2.93
                            94 2.94
  98  0.345  0.992  0.384- 107 2.56  99 2.71  95 2.79 101 2.87  94 2.89  97 2.90  86 2.90 100 2.91
                           106 2.91
  99  0.670  0.000  0.382- 108 2.67 102 2.68  98 2.71  97 2.75  96 2.80 101 2.81  87 2.81  95 2.82
                           107 2.83
 100  0.157  0.246  0.388-  97 2.66 104 2.68 102 2.71 103 2.81  98 2.91 101 2.92  85 2.94  88 3.01
                            86 3.01
 101  0.507  0.255  0.385- 102 2.73 105 2.76 104 2.78  99 2.81  89 2.86  98 2.87  87 2.87 100 2.92
                            86 2.93
 102  0.833  0.239  0.382-  97 2.63  99 2.68 103 2.70 100 2.71 101 2.73  87 2.79  85 2.80  90 2.88
                           105 3.09
 103  0.974  0.491  0.387- 102 2.70 105 2.75 100 2.81  90 2.82 104 2.84 106 2.84 108 2.86  91 3.00
                            88 3.03
 104  0.313  0.489  0.381-  88 2.67 100 2.68 106 2.75 101 2.78 105 2.79 103 2.84  89 2.84  92 2.85
                           107 2.94
 105  0.645  0.515  0.386- 107 2.68 108 2.74 103 2.75 101 2.76 104 2.79  93 2.85  89 2.88  90 3.05
                           102 3.09
 106  0.155  0.739  0.382-  52 2.20  91 2.73 107 2.74 104 2.75 108 2.80  92 2.83 103 2.84  94 2.86
                            97 2.90  98 2.91
 107  0.483  0.755  0.383-  98 2.56 105 2.68 106 2.74  92 2.80 108 2.81  95 2.83  99 2.83  93 2.93
                           104 2.94
 108  0.819  0.755  0.382-  50 2.49  99 2.67 105 2.74  93 2.78  96 2.80 106 2.80 107 2.81  97 2.86
                           103 2.86  91 2.90
 
  LATTYP: Found a simple orthorhombic cell.
 ALAT       =     8.3458886423
 B/A-ratio  =     1.1547005384
 C/A-ratio  =     3.8992763690
  
  Lattice vectors:
  
 A1 = (   8.3458886423,   0.0000000000,   0.0000000000)
 A2 = (   0.0000000000,   9.6370021085,   0.0000000000)
 A3 = (   0.0000000000,   0.0000000000,  32.5429263608)


Analysis of symmetry for initial positions (statically):
=====================================================================
 Subroutine PRICEL returns:
 Original cell was already a primitive cell.
 

 Routine SETGRP: Setting up the symmetry group for a 
 simple orthorhombic supercell.


 Subroutine GETGRP returns: Found  1 space group operations
 (whereof  1 operations were pure point group operations)
 out of a pool of  8 trial point group operations.


The static configuration has the point symmetry C_1 .


Analysis of symmetry for dynamics (positions and initial velocities):
=====================================================================
 Subroutine PRICEL returns:
 Original cell was already a primitive cell.
 

 Routine SETGRP: Setting up the symmetry group for a 
 simple orthorhombic supercell.


 Subroutine GETGRP returns: Found  1 space group operations
 (whereof  1 operations were pure point group operations)
 out of a pool of  8 trial point group operations.


The dynamic configuration has the point symmetry C_1 .


Analysis of constrained symmetry for selective dynamics:
=====================================================================
 Subroutine PRICEL returns:
 Original cell was already a primitive cell.
 

 Routine SETGRP: Setting up the symmetry group for a 
 simple orthorhombic supercell.


 Subroutine GETGRP returns: Found  1 space group operations
 (whereof  1 operations were pure point group operations)
 out of a pool of  8 trial point group operations.


The constrained configuration has the point symmetry C_1 .


 Subroutine INISYM returns: Found  1 space group operations
 (whereof  1 operations are pure point group operations),
 and found     1 'primitive' translations

 
 
 KPOINTS: automatic                               

Automatic generation of k-mesh.
Space group operators:
 irot       det(A)        alpha          n_x          n_y          n_z        tau_x        tau_y        tau_z
    1     1.000000     0.000000     1.000000     0.000000     0.000000     0.000000     0.000000     0.000000
 
 Subroutine IBZKPT returns following result:
 ===========================================
 
 Found      7 irreducible k-points:
 
 Following reciprocal coordinates:
            Coordinates               Weight
  0.000000  0.000000  0.000000      1.000000
  0.250000  0.000000  0.000000      2.000000
  0.500000  0.000000  0.000000      1.000000
  0.000000  0.333333  0.000000      2.000000
  0.250000  0.333333  0.000000      2.000000
  0.500000  0.333333  0.000000      2.000000
 -0.250000  0.333333  0.000000      2.000000
 
 Following cartesian coordinates:
            Coordinates               Weight
  0.000000  0.000000  0.000000      1.000000
  0.029955  0.000000  0.000000      2.000000
  0.059910  0.000000  0.000000      1.000000
  0.000000  0.034589  0.000000      2.000000
  0.029955  0.034589  0.000000      2.000000
  0.059910  0.034589  0.000000      2.000000
 -0.029955  0.034589  0.000000      2.000000
 


--------------------------------------------------------------------------------------------------------




 Dimension of arrays:
   k-points           NKPTS =      7   k-points in BZ     NKDIM =      7   number of bands    NBANDS=    331
   number of dos      NEDOS =    301   number of ions     NIONS =    108
   non local maximal  LDIM  =      6   non local SUM 2l+1 LMDIM =     18
   total plane-waves  NPLWV = 322560
   max r-space proj   IRMAX =   1822   max aug-charges    IRDMAX=   7663
   dimension x,y,z NGX =    42 NGY =   48 NGZ =  160
   dimension x,y,z NGXF=    84 NGYF=   96 NGZF=  320
   support grid    NGXF=    84 NGYF=   96 NGZF=  320
   ions per type =              48  24  36
   NGX,Y,Z   is equivalent  to a cutoff of   8.37,  8.28,  8.17 a.u.
   NGXF,Y,Z  is equivalent  to a cutoff of  16.73, 16.56, 16.35 a.u.

 SYSTEM =  PtH2O                                   
 POSCAR =   H  O Pt                                

 Startparameter for this run:
   NWRITE =      2    write-flag & timer
   PREC   = normal    normal or accurate (medium, high low for compatibility)
   ISTART =      0    job   : 0-new  1-cont  2-samecut
   ICHARG =      2    charge: 1-file 2-atom 10-const
   ISPIN  =      1    spin polarized calculation?
   LNONCOLLINEAR =      F non collinear calculations
   LSORBIT =      F    spin-orbit coupling
   INIWAV =      1    electr: 0-lowe 1-rand  2-diag
   LASPH  =      F    aspherical Exc in radial PAW
   METAGGA=      F    non-selfconsistent MetaGGA calc.

 Electronic Relaxation 1
   ENCUT  =  400.0 eV  29.40 Ry    5.42 a.u.  13.61 15.72 53.07*2*pi/ulx,y,z
   ENINI  =  400.0     initial cutoff
   ENAUG  =  605.4 eV  augmentation charge cutoff
   NELM   =    200;   NELMIN=  2; NELMDL= -5     # of ELM steps 
   EDIFF  = 0.1E-03   stopping-criterion for ELM
   LREAL  =      T    real-space projection
   NLSPLINE    = F    spline interpolate recip. space projectors
   LCOMPAT=      F    compatible to vasp.4.4
   GGA_COMPAT  = T    GGA compatible to vasp.4.4-vasp.4.6
   LMAXPAW     = -100 max onsite density
   LMAXMIX     =    2 max onsite mixed and CHGCAR
   VOSKOWN=      0    Vosko Wilk Nusair interpolation
   ROPT   =   -0.00050  -0.00050  -0.00050
 Ionic relaxation
   EDIFFG = 0.0E+00   stopping-criterion for IOM
   NSW    =      3    number of steps for IOM
   NBLOCK =      1;   KBLOCK =      3    inner block; outer block 
   IBRION =      0    ionic relax: 0-MD 1-quasi-New 2-CG
   NFREE  =      0    steps in history (QN), initial steepest desc. (CG)
   ISIF   =      0    stress and relaxation
   IWAVPR =     12    prediction:  0-non 1-charg 2-wave 3-comb
   ISYM   =      2    0-nonsym 1-usesym 2-fastsym
   LCORR  =      T    Harris-Foulkes like correction to forces

   POTIM  = 1.0000    time-step for ionic-motion
   TEIN   =  322.1    initial temperature
   TEBEG  =  300.0;   TEEND  = 300.0 temperature during run
   SMASS  =   0.07    Nose mass-parameter (am)
   estimated Nose-frequenzy (Omega)   =  0.16E+15 period in steps = 40.00 mass=   0.388E-28a.u.
   SCALEE = 1.0000    scale energy and forces
   NPACO  =    256;   APACO  = 16.0  distance and # of slots for P.C.
   PSTRESS=    0.0 pullay stress

  Mass of Ions in am
   POMASS =   1.00 16.00195.08
  Ionic Valenz
   ZVAL   =   1.00  6.00 10.00
  Atomic Wigner-Seitz radii
   RWIGS  =  -1.00 -1.00 -1.00
  virtual crystal weights 
   VCA    =   1.00  1.00  1.00
   NELECT =     552.0000    total number of electrons
   NUPDOWN=      -1.0000    fix difference up-down

 DOS related values:
   EMIN   =  10.00;   EMAX   =-10.00  energy-range for DOS
   EFERMI =   0.00
   ISMEAR =     0;   SIGMA  =   0.10  broadening in eV -4-tet -1-fermi 0-gaus

 Electronic relaxation 2 (details)
   IALGO  =     68    algorithm
   LDIAG  =      T    sub-space diagonalisation (order eigenvalues)
   LSUBROT=      F    optimize rotation matrix (better conditioning)
   TURBO    =      0    0=normal 1=particle mesh
   IRESTART =      0    0=no restart 2=restart with 2 vectors
   NREBOOT  =      0    no. of reboots
   NMIN     =      0    reboot dimension
   EREF     =   0.00    reference energy to select bands
   IMIX   =      4    mixing-type and parameters
     AMIX     =   0.40;   BMIX     =  1.00
     AMIX_MAG =   1.60;   BMIX_MAG =  1.00
     AMIN     =   0.10
     WC   =   100.;   INIMIX=   1;  MIXPRE=   1;  MAXMIX= -45

 Intra band minimization:
   WEIMIN = 0.0010     energy-eigenvalue tresh-hold
   EBREAK =  0.00E+00  absolut break condition
   DEPER  =   0.30     relativ break condition  

   TIME   =   0.40     timestep for ELM

  volume/ion in A,a.u.               =      24.24       163.55
  Fermi-wavevector in a.u.,A,eV,Ry     =   0.974460  1.841463 12.919723  0.949573
  Thomas-Fermi vector in A             =   2.104922
 
 Write flags
   LWAVE        =      F    write WAVECAR
   LDOWNSAMPLE  =      F    k-point downsampling of WAVECAR
   LCHARG       =      F    write CHGCAR
   LVTOT        =      F    write LOCPOT, total local potential
   LVHAR        =      F    write LOCPOT, Hartree potential only
   LELF         =      F    write electronic localiz. function (ELF)
   LORBIT       =      0    0 simple, 1 ext, 2 COOP (PROOUT), +10 PAW based schemes


 Dipole corrections
   LMONO  =      F    monopole corrections only (constant potential shift)
   LDIPOL =      T    correct potential (dipole corrections)
   IDIPOL =      3    1-x, 2-y, 3-z, 4-all directions 
   EPSILON=  1.0000000 bulk dielectric constant

 Exchange correlation treatment:
   GGA     =    RP    GGA type
   LEXCH   =     9    internal setting for exchange type
   VOSKOWN=      0    Vosko Wilk Nusair interpolation
   LHFCALC =     F    Hartree Fock is set to
   LHFONE  =     F    Hartree Fock one center treatment
   AEXX    =    0.0000 exact exchange contribution

 Linear response parameters
   LEPSILON=     F    determine dielectric tensor
   LRPA    =     F    only Hartree local field effects (RPA)
   LNABLA  =     F    use nabla operator in PAW spheres
   LVEL    =     F    velocity operator in full k-point grid
   LINTERFAST=   F  fast interpolation
   KINTER  =     0    interpolate to denser k-point grid
   CSHIFT  =0.1000    complex shift for real part using Kramers Kronig
   OMEGAMAX=  -1.0    maximum frequency
   DEG_THRESHOLD= 0.2000000E-02 threshold for treating states as degnerate
   RTIME   =   -0.100 relaxation time in fs
  (WPLASMAI=    0.000 imaginary part of plasma frequency in eV, 0.658/RTIME)
   DFIELD  = 0.0000000 0.0000000 0.0000000 field for delta impulse in time
 
 Orbital magnetization related:
   ORBITALMAG=     F  switch on orbital magnetization
   LCHIMAG   =     F  perturbation theory with respect to B field
   DQ        =  0.001000  dq finite difference perturbation B field
   LLRAUG    =     F  two centre corrections for induced B field



--------------------------------------------------------------------------------------------------------


 molecular dynamics for ions
   using nose mass (canonical ensemble)
   using selective dynamics as specified on POSCAR
 charge density and potential will be updated during run
 non-spin polarized calculation
 RMM-DIIS sequential band-by-band and
  variant of blocked Davidson during initial phase
 perform sub-space diagonalisation
    before iterative eigenvector-optimisation
 modified Broyden-mixing scheme, WC =      100.0
 initial mixing is a Kerker type mixing with AMIX =  0.4000 and BMIX =      1.0000
 Hartree-type preconditioning will be used
 using additional bands           55
 real space projection scheme for non local part
 use partial core corrections
 calculate Harris-corrections to forces 
   (improved forces if not selfconsistent)
 use gradient corrections 
 use of overlap-Matrix (Vanderbilt PP)
 Gauss-broadening in eV      SIGMA  =   0.10


--------------------------------------------------------------------------------------------------------


  energy-cutoff  :      400.00
  volume of cell :     2617.41
      direct lattice vectors                 reciprocal lattice vectors
     8.345888642  0.000000000  0.000000000     0.119819476  0.000000000  0.000000000
     0.000000000  9.637002109  0.000000000     0.000000000  0.103766710  0.000000000
     0.000000000  0.000000000 32.542926361     0.000000000  0.000000000  0.030728644

  length of vectors
     8.345888642  9.637002109 32.542926361     0.119819476  0.103766710  0.030728644


 
 k-points in units of 2pi/SCALE and weight: automatic                               
   0.00000000  0.00000000  0.00000000       0.083
   0.02995487  0.00000000  0.00000000       0.167
   0.05990974  0.00000000  0.00000000       0.083
   0.00000000  0.03458890  0.00000000       0.167
   0.02995487  0.03458890  0.00000000       0.167
   0.05990974  0.03458890  0.00000000       0.167
  -0.02995487  0.03458890  0.00000000       0.167
 
 k-points in reciprocal lattice and weights: automatic                               
   0.00000000  0.00000000  0.00000000       0.083
   0.25000000  0.00000000  0.00000000       0.167
   0.50000000  0.00000000  0.00000000       0.083
   0.00000000  0.33333333  0.00000000       0.167
   0.25000000  0.33333333  0.00000000       0.167
   0.50000000  0.33333333  0.00000000       0.167
  -0.25000000  0.33333333  0.00000000       0.167
 
 position of ions in fractional coordinates (direct lattice) 
   0.21304072  0.45473931  0.50846637
   0.21313953  0.48322638  0.46223750
   0.76800071  0.84395059  0.46389812
   0.79007906  0.68469112  0.47410776
   0.61933552  0.98255804  0.50891211
   0.60094013  0.05133927  0.46527834
   0.05664838  0.72157111  0.45643511
   0.22729339  0.81313392  0.45858715
   0.30995377  0.21739743  0.67377805
   0.39448449  0.07992921  0.67848112
   0.78763158  0.53723784  0.59189330
   0.77729185  0.69351013  0.59701401
   0.86920694  0.41458479  0.75671171
   0.75847196  0.35925057  0.72218012
   0.46249583  0.79736345  0.69600434
   0.59768818  0.91170549  0.70050119
   0.45781954  0.72681888  0.61809471
   0.23432551  0.14209239  0.56315336
   0.20113777  0.82338187  0.63484843
   0.15300227  0.93073762  0.67266949
   0.67142786  0.53306928  0.65708636
   0.55961679  0.39640487  0.66719781
   0.79583864  0.05070336  0.62617284
   0.63003694  0.10722019  0.63868816
   0.81755513  0.14457686  0.49575877
   0.97076448  0.18783654  0.46888216
   0.25950972  0.04432755  0.46650293
   0.27690745  0.98967208  0.51056637
   0.95647623  0.85344705  0.62195472
   0.97798737  0.91448103  0.58166585
   0.49219629  0.39173037  0.47655866
   0.60697833  0.28173623  0.45854343
   0.85799104  0.31473033  0.55504439
   0.85479962  0.26413980  0.60242627
   0.46042218  0.20984795  0.58486482
   0.47460863  0.27484346  0.54295919
   0.26592930  0.42601696  0.58859568
   0.09049688  0.44247483  0.58279942
   0.06417007  0.16268027  0.71145434
   0.94324955  0.13081662  0.67910248
   0.08650200  0.12460991  0.53763927
   0.32747525  0.67975753  0.58583665
   0.72577221  0.44177779  0.50478582
   0.72011999  0.56395148  0.53544921
   0.49351414  0.91173040  0.57385472
   0.67300859  0.97609502  0.57829188
   0.27805943  0.64673476  0.69434894
   0.44761443  0.57550908  0.69490640
   0.23732503  0.41305842  0.48205722
   0.82944579  0.76109403  0.45865413
   0.67677882  0.99416720  0.48256782
   0.17643603  0.71301921  0.44872599
   0.41221577  0.17200732  0.66485980
   0.71289476  0.61060449  0.60335576
   0.84129998  0.32656124  0.74132906
   0.51124913  0.88732275  0.68330687
   0.15492939  0.07277627  0.55636403
   0.12359361  0.84747316  0.65794073
   0.62031697  0.47320872  0.67858442
   0.74819780  0.12928821  0.63999565
   0.93199981  0.16886856  0.49759140
   0.29615489  0.96309924  0.48118050
   0.88804888  0.87257934  0.59780850
   0.57352959  0.32688353  0.48433762
   0.88119777  0.34760765  0.58351438
   0.41679770  0.28517072  0.56870608
   0.18984143  0.49810886  0.58136179
   0.05709588  0.12763679  0.68340728
   0.36297681  0.75704748  0.60297714
   0.77943994  0.53397673  0.51168999
   0.56025534  0.99214768  0.56725670
   0.38993735  0.65923642  0.70340099
   0.16666667  0.08333333  0.24123678
   0.50000000  0.08333333  0.24123678
   0.83333333  0.08333333  0.24123678
   0.00000000  0.33333333  0.24123678
   0.33333333  0.33333333  0.24123678
   0.66666667  0.33333333  0.24123678
   0.16666667  0.58333333  0.24123678
   0.50000000  0.58333333  0.24123678
   0.83333333  0.58333333  0.24123678
   0.00000000  0.83333333  0.24123678
   0.33333333  0.83333333  0.24123678
   0.66666667  0.83333333  0.24123678
   0.00000000  0.16666667  0.31103576
   0.33333333  0.16666667  0.31103576
   0.66666667  0.16666667  0.31103576
   0.16666667  0.41666667  0.31103576
   0.50000000  0.41666667  0.31103576
   0.83333333  0.41666667  0.31103576
   0.00000000  0.66666667  0.31103576
   0.33333333  0.66666667  0.31103576
   0.66666667  0.66666667  0.31103576
   0.16666667  0.91666667  0.31103576
   0.50000000  0.91666667  0.31103576
   0.83333333  0.91666667  0.31103576
   0.99865360  0.00751246  0.38569333
   0.34518137  0.99232034  0.38364119
   0.66998172  0.00000355  0.38190363
   0.15744833  0.24610335  0.38832232
   0.50669335  0.25482928  0.38470810
   0.83314722  0.23941238  0.38235599
   0.97350298  0.49088964  0.38689777
   0.31257618  0.48855631  0.38084694
   0.64527209  0.51491559  0.38583878
   0.15484848  0.73944978  0.38165429
   0.48295249  0.75493364  0.38333483
   0.81931142  0.75544931  0.38234597
 
 position of ions in cartesian coordinates  (Angst):
   1.77801413  4.38232369 16.54698364
   1.77883878  4.65685364 15.04256092
   6.40964840  8.13315362 15.09660236
   6.59391185  6.59836977 15.42885392
   5.16890528  9.46891390 16.56148932
   5.01537941  0.49475662 15.14151876
   0.47278107  6.95378231 14.85373417
   1.89696532  7.83617330 14.92376785
   2.58683965  2.09505949 21.92670946
   3.29232362  0.77027792 22.07976113
   6.57348546  5.17736220 19.26194008
   6.48719122  6.68335859 19.42858296
   7.25430433  3.99535450 24.62561345
   6.33012252  3.46209850 23.50185446
   3.85993869  7.68419325 22.65001798
   4.98823899  8.78610773 22.79635864
   3.82091090  7.00435508 20.11461063
   1.95565461  1.36934466 18.32665832
   1.67867343  7.93493282 20.65982571
   1.27693991  8.96952041 21.89063368
   5.60366215  5.13718978 21.38351303
   4.67049941  3.82015457 21.71256920
   6.64198067  0.48862835 20.37749662
   5.25821814  1.03328120 20.78478176
   6.82322407  1.39328750 16.13344114
   8.10189225  1.81018113 15.25879760
   2.16583922  0.42718471 15.18137050
   2.31103874  9.53747192 16.61532378
   7.98264410  8.22467102 20.24022665
   8.16217368  8.81285561 18.92910892
   4.10781543  3.77510640 15.50861338
   5.06577355  2.71509264 14.92234508
   7.16069768  3.03305685 18.06276871
   7.13406244  2.54551581 19.60471374
   3.84263224  2.02230514 19.03321277
   3.96103077  2.64866700 17.66948094
   2.21941632  4.10552634 19.15462587
   0.75527692  4.26413087 18.96599861
   0.53555623  1.56775011 23.15280620
   7.87225571  1.26068004 22.09998200
   0.72193604  1.20086597 17.49635517
   2.73307197  6.55082475 19.06483896
   6.05721404  4.25741349 16.42720777
   6.01004125  5.43480160 17.42508421
   4.11881406  8.78634779 18.67491189
   5.61685475  9.40662977 18.81931007
   2.32065304  6.23258425 22.59614642
   3.73574019  5.54618222 22.61428780
   1.98068827  3.98064486 15.68755261
   6.92246220  7.33466477 14.92594758
   5.64832067  9.58079140 15.70416903
   1.47251546  6.87136763 14.60285685
   3.44030691  1.65763491 21.63648351
   5.94974028  5.88439676 19.63496207
   7.02139595  3.14707136 24.12501701
   4.26682831  8.55113121 22.23680515
   1.29302344  0.70134502 18.10571366
   1.03149851  8.16710063 21.41131673
   5.17709635  4.56031343 22.08312281
   6.24437552  1.24595075 20.82733131
   7.77836663  1.62738667 16.19308029
   2.47167573  9.28138941 15.65902158
   7.41155706  8.40904894 19.45443799
   4.78661409  3.15017727 15.76176350
   7.35437846  3.34989566 18.98926550
   3.47854719  2.74819083 18.50736008
   1.58439543  4.80027613 18.91921392
   0.47651582  1.23003601 22.24007279
   3.02936404  7.29566816 19.62264066
   6.50511894  5.14593487 16.65188966
   4.67582868  9.56132928 18.46019302
   3.25437370  6.35306277 22.89072662
   1.39098147  0.80308351  7.85055077
   4.17294432  0.80308351  7.85055077
   6.95490717  0.80308351  7.85055077
   0.00000000  3.21233400  7.85055077
   2.78196285  3.21233400  7.85055077
   5.56392579  3.21233400  7.85055077
   1.39098147  5.62158453  7.85055077
   4.17294432  5.62158453  7.85055077
   6.95490717  5.62158453  7.85055077
   0.00000000  8.03083506  7.85055077
   2.78196285  8.03083506  7.85055077
   5.56392579  8.03083506  7.85055077
   0.00000000  1.60616705 10.12201383
   2.78196285  1.60616705 10.12201383
   5.56392579  1.60616705 10.12201383
   1.39098147  4.01541758 10.12201383
   4.17294432  4.01541758 10.12201383
   6.95490717  4.01541758 10.12201383
   0.00000000  6.42466810 10.12201383
   2.78196285  6.42466810 10.12201383
   5.56392579  6.42466810 10.12201383
   1.39098147  8.83391863 10.12201383
   4.17294432  8.83391863 10.12201383
   6.95490717  8.83391863 10.12201383
   8.33465174  0.07239758 12.55158964
   2.88084528  9.56299321 12.48480700
   5.59159283  0.00003423 12.42826171
   1.31404623  2.37169850 12.63714466
   4.22880627  2.45579031 12.51952737
   6.95335392  2.30721761 12.44298283
   8.12474746  4.73070450 12.59078564
   2.60872599  4.70821819 12.39387392
   5.38536901  4.96224263 12.55632300
   1.29234817  7.12607909 12.42014745
   4.03066770  7.27529708 12.47483714
   6.83788187  7.28026659 12.44265675
 


--------------------------------------------------------------------------------------------------------


 k-point  1 :   0.0000 0.0000 0.0000  plane waves:   47615
 k-point  2 :   0.2500 0.0000 0.0000  plane waves:   47511
 k-point  3 :   0.5000 0.0000 0.0000  plane waves:   47600
 k-point  4 :   0.0000 0.3333 0.0000  plane waves:   47504
 k-point  5 :   0.2500 0.3333 0.0000  plane waves:   47550
 k-point  6 :   0.5000 0.3333 0.0000  plane waves:   47452
 k-point  7 :  -0.2500 0.3333 0.0000  plane waves:   47550

 maximum and minimum number of plane-waves per node :      2020     1955

 maximum number of plane-waves:     47615
 maximum index in each direction: 
   IXMAX=   13   IYMAX=   15   IZMAX=   53
   IXMIN=  -14   IYMIN=  -16   IZMIN=  -53


 real space projection operators:
  total allocation   :      12620.31 KBytes
  max/ min on nodes  :        644.09        284.51


 parallel 3D FFT for wavefunctions:
    minimum data exchange during FFTs selected (reduces bandwidth)
 parallel 3D FFT for charge:
    minimum data exchange during FFTs selected (reduces bandwidth)


 total amount of memory used by VASP MPI-rank0   122902. kBytes
=======================================================================

   base      :      30000. kBytes
   nonlr-proj:       4013. kBytes
   fftplans  :       4483. kBytes
   grid      :       8517. kBytes
   one-center:         77. kBytes
   wavefun   :      75812. kBytes
 
     INWAV:  cpu time    0.0000: real time    0.0000
 Broyden mixing: mesh for mixing (old mesh)
   NGX = 27   NGY = 31   NGZ =107
  (NGX  = 84   NGY  = 96   NGZ  =320)
  gives a total of  89559 points

 initial charge density was supplied:
 charge density of overlapping atoms calculated
 number of electron     552.0000000 magnetization 
 keeping initial charge density in first step


--------------------------------------------------------------------------------------------------------


 Maximum index for non-local projection operator          173
 Maximum index for augmentation-charges          587 (set IRDMAX)


--------------------------------------------------------------------------------------------------------


 First call to EWALD:  gamma=   0.129
 Maximum number of real-space cells 4x 4x 1
 Maximum number of reciprocal cells 2x 2x 6

    FEWALD:  cpu time    0.0602: real time    0.0602


--------------------------------------- Iteration      1(   1)  ---------------------------------------


    POTLOK:  cpu time    0.0810: real time    0.0834
    SETDIJ:  cpu time    0.0103: real time    0.0110
     EDDAV:  cpu time   18.1983: real time   18.2015
       DOS:  cpu time    0.0099: real time    0.0099
    --------------------------------------------
      LOOP:  cpu time   18.2996: real time   18.3058

 eigenvalue-minimisations  :  4802
 total energy-change (2. order) : 0.3745701E+04  (-0.2132091E+05)
 number of electron     552.0000000 magnetization 
 augmentation part      552.0000000 magnetization 

 DIPCOR: dipole corrections for dipol
 direction  3 min pos     1,
 dipolmoment           0.000000      0.000000     -0.000073 electrons x Angstroem
 Tr[quadrupol]     -7477.694872

 energy correction for charged system         0.000000 eV
 dipol+quadrupol energy correction           -0.000000 eV
 added-field ion interaction         -0.008553 eV  (added to PSCEN)


 Free energy of the ion-electron system (eV)
  ---------------------------------------------------
  alpha Z        PSCENC =       863.57843226
  Ewald energy   TEWEN  =    223656.49064828
  -Hartree energ DENC   =   -260409.41279031
  -exchange      EXHF   =         0.00000000
  -V(xc)+E(xc)   XCENC  =       881.11084400
  PAW double counting   =     33505.36643195   -32489.60540758
  entropy T*S    EENTRO =        -0.13437969
  eigenvalues    EBANDS =       544.35472548
  atomic energy  EATOM  =     37193.95212048
  Solvation  Ediel_sol  =         0.00000000
  ---------------------------------------------------
  free energy    TOTEN  =      3745.70062488 eV

  energy without entropy =     3745.83500457  energy(sigma->0) =     3745.76781472


--------------------------------------------------------------------------------------------------------




--------------------------------------- Iteration      1(   2)  ---------------------------------------


     EDDAV:  cpu time   20.6767: real time   20.6810
       DOS:  cpu time    0.0065: real time    0.0065
    --------------------------------------------
      LOOP:  cpu time   20.6832: real time   20.6875

 eigenvalue-minimisations  :  5796
 total energy-change (2. order) :-0.3886974E+04  (-0.3694225E+04)
 number of electron     552.0000000 magnetization 
 augmentation part      552.0000000 magnetization 

 DIPCOR: dipole corrections for dipol
 direction  3 min pos     1,
 dipolmoment           0.000000      0.000000     -0.000073 electrons x Angstroem
 Tr[quadrupol]     -7477.694872

 energy correction for charged system         0.000000 eV
 dipol+quadrupol energy correction           -0.000000 eV
 added-field ion interaction         -0.008553 eV  (added to PSCEN)


 Free energy of the ion-electron system (eV)
  ---------------------------------------------------
  alpha Z        PSCENC =       863.57843226
  Ewald energy   TEWEN  =    223656.49064828
  -Hartree energ DENC   =   -260409.41279031
  -exchange      EXHF   =         0.00000000
  -V(xc)+E(xc)   XCENC  =       881.11084400
  PAW double counting   =     33505.36643195   -32489.60540758
  entropy T*S    EENTRO =        -0.19392529
  eigenvalues    EBANDS =     -3342.56000736
  atomic energy  EATOM  =     37193.95212048
  Solvation  Ediel_sol  =         0.00000000
  ---------------------------------------------------
  free energy    TOTEN  =      -141.27365356 eV

  energy without entropy =     -141.07972826  energy(sigma->0) =     -141.17669091


--------------------------------------------------------------------------------------------------------




--------------------------------------- Iteration      1(   3)  ---------------------------------------


     EDDAV:  cpu time   17.9910: real time   17.9941
       DOS:  cpu time    0.0068: real time    0.0068
    --------------------------------------------
      LOOP:  cpu time   17.9978: real time   18.0008

 eigenvalue-minimisations  :  5212
 total energy-change (2. order) :-0.4187038E+03  (-0.4047200E+03)
 number of electron     552.0000000 magnetization 
 augmentation part      552.0000000 magnetization 

 DIPCOR: dipole corrections for dipol
 direction  3 min pos     1,
 dipolmoment           0.000000      0.000000     -0.000073 electrons x Angstroem
 Tr[quadrupol]     -7477.694872

 energy correction for charged system         0.000000 eV
 dipol+quadrupol energy correction           -0.000000 eV
 added-field ion interaction         -0.008553 eV  (added to PSCEN)


 Free energy of the ion-electron system (eV)
  ---------------------------------------------------
  alpha Z        PSCENC =       863.57843226
  Ewald energy   TEWEN  =    223656.49064828
  -Hartree energ DENC   =   -260409.41279031
  -exchange      EXHF   =         0.00000000
  -V(xc)+E(xc)   XCENC  =       881.11084400
  PAW double counting   =     33505.36643195   -32489.60540758
  entropy T*S    EENTRO =        -0.26778049
  eigenvalues    EBANDS =     -3761.18993073
  atomic energy  EATOM  =     37193.95212048
  Solvation  Ediel_sol  =         0.00000000
  ---------------------------------------------------
  free energy    TOTEN  =      -559.97743213 eV

  energy without entropy =     -559.70965164  energy(sigma->0) =     -559.84354188


--------------------------------------------------------------------------------------------------------




--------------------------------------- Iteration      1(   4)  ---------------------------------------


     EDDAV:  cpu time   19.1280: real time   19.1320
       DOS:  cpu time    0.0067: real time    0.0067
    --------------------------------------------
      LOOP:  cpu time   19.1347: real time   19.1387

 eigenvalue-minimisations  :  5676
 total energy-change (2. order) :-0.1414755E+02  (-0.1402163E+02)
 number of electron     552.0000000 magnetization 
 augmentation part      552.0000000 magnetization 

 DIPCOR: dipole corrections for dipol
 direction  3 min pos     1,
 dipolmoment           0.000000      0.000000     -0.000073 electrons x Angstroem
 Tr[quadrupol]     -7477.694872

 energy correction for charged system         0.000000 eV
 dipol+quadrupol energy correction           -0.000000 eV
 added-field ion interaction         -0.008553 eV  (added to PSCEN)


 Free energy of the ion-electron system (eV)
  ---------------------------------------------------
  alpha Z        PSCENC =       863.57843226
  Ewald energy   TEWEN  =    223656.49064828
  -Hartree energ DENC   =   -260409.41279031
  -exchange      EXHF   =         0.00000000
  -V(xc)+E(xc)   XCENC  =       881.11084400
  PAW double counting   =     33505.36643195   -32489.60540758
  entropy T*S    EENTRO =        -0.27007203
  eigenvalues    EBANDS =     -3775.33518535
  atomic energy  EATOM  =     37193.95212048
  Solvation  Ediel_sol  =         0.00000000
  ---------------------------------------------------
  free energy    TOTEN  =      -574.12497829 eV

  energy without entropy =     -573.85490626  energy(sigma->0) =     -573.98994227


--------------------------------------------------------------------------------------------------------




--------------------------------------- Iteration      1(   5)  ---------------------------------------


     EDDAV:  cpu time   21.8666: real time   21.8713
       DOS:  cpu time    0.0068: real time    0.0068
    CHARGE:  cpu time    0.8409: real time    0.8410
    MIXING:  cpu time    0.0034: real time    0.0034
    --------------------------------------------
      LOOP:  cpu time   22.7178: real time   22.7227

 eigenvalue-minimisations  :  6356
 total energy-change (2. order) :-0.3941139E+00  (-0.3935123E+00)
 number of electron     552.0000325 magnetization 
 augmentation part      124.6371233 magnetization 

 DIPCOR: dipole corrections for dipol
 direction  3 min pos     1,
 dipolmoment           0.000000      0.000000     -0.000073 electrons x Angstroem
 Tr[quadrupol]     -7477.694872

 energy correction for charged system         0.000000 eV
 dipol+quadrupol energy correction           -0.000000 eV
 added-field ion interaction         -0.008553 eV  (added to PSCEN)


 Broyden mixing:
  rms(total) = 0.68744E+01    rms(broyden)= 0.68704E+01
  rms(prec ) = 0.69683E+01
  weight for this iteration     100.00

 Free energy of the ion-electron system (eV)
  ---------------------------------------------------
  alpha Z        PSCENC =       863.57843226
  Ewald energy   TEWEN  =    223656.49064828
  -Hartree energ DENC   =   -260409.41279031
  -exchange      EXHF   =         0.00000000
  -V(xc)+E(xc)   XCENC  =       881.11084400
  PAW double counting   =     33505.36643195   -32489.60540758
  entropy T*S    EENTRO =        -0.27018138
  eigenvalues    EBANDS =     -3775.72918987
  atomic energy  EATOM  =     37193.95212048
  Solvation  Ediel_sol  =         0.00000000
  ---------------------------------------------------
  free energy    TOTEN  =      -574.51909216 eV

  energy without entropy =     -574.24891078  energy(sigma->0) =     -574.38400147


--------------------------------------------------------------------------------------------------------




--------------------------------------- Iteration      1(   6)  ---------------------------------------


    POTLOK:  cpu time    0.0904: real time    0.0920
    SETDIJ:  cpu time    0.0146: real time    0.0153
    EDDIAG:  cpu time    2.9078: real time    2.9082
  RMM-DIIS:  cpu time    9.0185: real time    9.0196
    ORTHCH:  cpu time    0.7943: real time    0.7944
       DOS:  cpu time    0.0071: real time    0.0071
    CHARGE:  cpu time    0.8272: real time    0.8273
    MIXING:  cpu time    0.0036: real time    0.0037
    --------------------------------------------
      LOOP:  cpu time   13.6635: real time   13.6676

 eigenvalue-minimisations  :  4638
 total energy-change (2. order) : 0.4152127E+02  (-0.1781942E+02)
 number of electron     552.0000380 magnetization 
 augmentation part      128.0875782 magnetization 

 DIPCOR: dipole corrections for dipol
 direction  3 min pos     1,
 dipolmoment           0.000000      0.000000      0.361370 electrons x Angstroem
 Tr[quadrupol]     -7478.776756

 energy correction for charged system         0.000000 eV
 dipol+quadrupol energy correction           -0.004514 eV
 added-field ion interaction         42.245603 eV  (added to PSCEN)


 Broyden mixing:
  rms(total) = 0.44383E+01    rms(broyden)= 0.44377E+01
  rms(prec ) = 0.45556E+01
  weight for this iteration     100.00

 eigenvalues of (default mixing * dielectric matrix)
  average eigenvalue GAMMA=   1.1759
  1.1759

 Free energy of the ion-electron system (eV)
  ---------------------------------------------------
  alpha Z        PSCENC =       905.82807432
  Ewald energy   TEWEN  =    223656.49064828
  -Hartree energ DENC   =   -260526.00751680
  -exchange      EXHF   =         0.00000000
  -V(xc)+E(xc)   XCENC  =       900.85622596
  PAW double counting   =     38231.94213718   -37273.18307857
  entropy T*S    EENTRO =        -0.41652877
  eigenvalues    EBANDS =     -3622.45990438
  atomic energy  EATOM  =     37193.95212048
  Solvation  Ediel_sol  =         0.00000000
  ---------------------------------------------------
  free energy    TOTEN  =      -532.99782228 eV

  energy without entropy =     -532.58129351  energy(sigma->0) =     -532.78955790


--------------------------------------------------------------------------------------------------------




--------------------------------------- Iteration      1(   7)  ---------------------------------------


    POTLOK:  cpu time    0.0910: real time    0.0916
    SETDIJ:  cpu time    0.0148: real time    0.0148
    EDDIAG:  cpu time    2.9354: real time    2.9365
  RMM-DIIS:  cpu time    7.8805: real time    7.8815
    ORTHCH:  cpu time    0.7244: real time    0.7245
       DOS:  cpu time    0.0065: real time    0.0065
    CHARGE:  cpu time    0.5787: real time    0.5787
    MIXING:  cpu time    0.0030: real time    0.0030
    --------------------------------------------
      LOOP:  cpu time   12.2342: real time   12.2371

 eigenvalue-minimisations  :  4666
 total energy-change (2. order) :-0.6990974E+02  (-0.1147133E+02)
 number of electron     552.0000324 magnetization 
 augmentation part      123.2550188 magnetization 

 DIPCOR: dipole corrections for dipol
 direction  3 min pos     1,
 dipolmoment           0.000000      0.000000     -2.556379 electrons x Angstroem
 Tr[quadrupol]     -7456.673079

 energy correction for charged system         0.000000 eV
 dipol+quadrupol energy correction           -0.225902 eV
 added-field ion interaction       -298.850727 eV  (added to PSCEN)


 Broyden mixing:
  rms(total) = 0.64319E+01    rms(broyden)= 0.64317E+01
  rms(prec ) = 0.76583E+01
  weight for this iteration     100.00

 eigenvalues of (default mixing * dielectric matrix)
  average eigenvalue GAMMA=   0.8620
  1.4462  0.2778

 Free energy of the ion-electron system (eV)
  ---------------------------------------------------
  alpha Z        PSCENC =       564.51035579
  Ewald energy   TEWEN  =    223656.49064828
  -Hartree energ DENC   =   -260535.68561629
  -exchange      EXHF   =         0.00000000
  -V(xc)+E(xc)   XCENC  =       903.91105261
  PAW double counting   =     41471.88124528   -40534.35887357
  entropy T*S    EENTRO =        -0.23032855
  eigenvalues    EBANDS =     -3323.37816496
  atomic energy  EATOM  =     37193.95212048
  Solvation  Ediel_sol  =         0.00000000
  ---------------------------------------------------
  free energy    TOTEN  =      -602.90756091 eV

  energy without entropy =     -602.67723236  energy(sigma->0) =     -602.79239664


--------------------------------------------------------------------------------------------------------




--------------------------------------- Iteration      1(   8)  ---------------------------------------


    POTLOK:  cpu time    0.0741: real time    0.0752
    SETDIJ:  cpu time    0.0104: real time    0.0104
    EDDIAG:  cpu time    2.3120: real time    2.3123
  RMM-DIIS:  cpu time    8.0391: real time    8.0400
    ORTHCH:  cpu time    0.7185: real time    0.7186
       DOS:  cpu time    0.0066: real time    0.0066
    CHARGE:  cpu time    0.7347: real time    0.7348
    MIXING:  cpu time    0.0041: real time    0.0041
    --------------------------------------------
      LOOP:  cpu time   11.8994: real time   11.9020

 eigenvalue-minimisations  :  4639
 total energy-change (2. order) : 0.2687378E+02  (-0.7404393E+01)
 number of electron     552.0000368 magnetization 
 augmentation part      131.4737152 magnetization 

 DIPCOR: dipole corrections for dipol
 direction  3 min pos     1,
 dipolmoment           0.000000      0.000000      2.514258 electrons x Angstroem
 Tr[quadrupol]     -7493.837980

 energy correction for charged system         0.000000 eV
 dipol+quadrupol energy correction           -0.218519 eV
 added-field ion interaction        293.926622 eV  (added to PSCEN)


 Broyden mixing:
  rms(total) = 0.62177E+01    rms(broyden)= 0.62083E+01
  rms(prec ) = 0.75770E+01
  weight for this iteration     100.00

 eigenvalues of (default mixing * dielectric matrix)
  average eigenvalue GAMMA=   0.6312
  1.4433  0.3220  0.1284

 Free energy of the ion-electron system (eV)
  ---------------------------------------------------
  alpha Z        PSCENC =      1157.29508820
  Ewald energy   TEWEN  =    223656.49064828
  -Hartree energ DENC   =   -260581.64374481
  -exchange      EXHF   =         0.00000000
  -V(xc)+E(xc)   XCENC  =       904.25258772
  PAW double counting   =     42584.06892601   -41658.08862995
  entropy T*S    EENTRO =        -0.22751885
  eigenvalues    EBANDS =     -3832.13326288
  atomic energy  EATOM  =     37193.95212048
  Solvation  Ediel_sol  =         0.00000000
  ---------------------------------------------------
  free energy    TOTEN  =      -576.03378581 eV

  energy without entropy =     -575.80626695  energy(sigma->0) =     -575.92002638


--------------------------------------------------------------------------------------------------------




--------------------------------------- Iteration      1(   9)  ---------------------------------------


    POTLOK:  cpu time    0.0738: real time    0.0768
    SETDIJ:  cpu time    0.0100: real time    0.0107
    EDDIAG:  cpu time    2.4907: real time    2.4910
  RMM-DIIS:  cpu time    8.0484: real time    8.0494
    ORTHCH:  cpu time    0.7247: real time    0.7247
       DOS:  cpu time    0.0068: real time    0.0068
    CHARGE:  cpu time    0.7468: real time    0.7469
    MIXING:  cpu time    0.0034: real time    0.0034
    --------------------------------------------
      LOOP:  cpu time   12.1045: real time   12.1098

 eigenvalue-minimisations  :  4644
 total energy-change (2. order) : 0.3931392E+02  (-0.1369764E+01)
 number of electron     552.0000344 magnetization 
 augmentation part      128.4380399 magnetization 

 DIPCOR: dipole corrections for dipol
 direction  3 min pos     1,
 dipolmoment           0.000000      0.000000     -0.828234 electrons x Angstroem
 Tr[quadrupol]     -7486.957179

 energy correction for charged system         0.000000 eV
 dipol+quadrupol energy correction           -0.023712 eV
 added-field ion interaction        -96.823788 eV  (added to PSCEN)


 Broyden mixing:
  rms(total) = 0.28103E+01    rms(broyden)= 0.27969E+01
  rms(prec ) = 0.30198E+01
  weight for this iteration     100.00

 eigenvalues of (default mixing * dielectric matrix)
  average eigenvalue GAMMA=   0.6846
  1.7678  0.4087  0.4087  0.1535

 Free energy of the ion-electron system (eV)
  ---------------------------------------------------
  alpha Z        PSCENC =       766.73948511
  Ewald energy   TEWEN  =    223656.49064828
  -Hartree energ DENC   =   -260833.79668946
  -exchange      EXHF   =         0.00000000
  -V(xc)+E(xc)   XCENC  =       902.93950260
  PAW double counting   =     42872.84617364   -41947.43563003
  entropy T*S    EENTRO =        -0.33179716
  eigenvalues    EBANDS =     -3148.12368266
  atomic energy  EATOM  =     37193.95212048
  Solvation  Ediel_sol  =         0.00000000
  ---------------------------------------------------
  free energy    TOTEN  =      -536.71986920 eV

  energy without entropy =     -536.38807204  energy(sigma->0) =     -536.55397062


--------------------------------------------------------------------------------------------------------




--------------------------------------- Iteration      1(  10)  ---------------------------------------


    POTLOK:  cpu time    0.0742: real time    0.0749
    SETDIJ:  cpu time    0.0104: real time    0.0104
    EDDIAG:  cpu time    2.6183: real time    2.6187
  RMM-DIIS:  cpu time    7.0625: real time    7.0634
    ORTHCH:  cpu time    0.6994: real time    0.6995
       DOS:  cpu time    0.0068: real time    0.0068
    CHARGE:  cpu time    0.5630: real time    0.5630
    MIXING:  cpu time    0.0036: real time    0.0036
    --------------------------------------------
      LOOP:  cpu time   11.0382: real time   11.0403

 eigenvalue-minimisations  :  4643
 total energy-change (2. order) :-0.5818130E+01  (-0.4371178E+01)
 number of electron     552.0000408 magnetization 
 augmentation part      132.1807981 magnetization 

 DIPCOR: dipole corrections for dipol
 direction  3 min pos     1,
 dipolmoment           0.000000      0.000000      0.984178 electrons x Angstroem
 Tr[quadrupol]     -7476.869820

 energy correction for charged system         0.000000 eV
 dipol+quadrupol energy correction           -0.033482 eV
 added-field ion interaction        115.054318 eV  (added to PSCEN)


 Broyden mixing:
  rms(total) = 0.46218E+01    rms(broyden)= 0.46168E+01
  rms(prec ) = 0.54269E+01
  weight for this iteration     100.00

 eigenvalues of (default mixing * dielectric matrix)
  average eigenvalue GAMMA=   0.7080
  2.0005  0.8080  0.2999  0.2999  0.1316

 Free energy of the ion-electron system (eV)
  ---------------------------------------------------
  alpha Z        PSCENC =       978.60782096
  Ewald energy   TEWEN  =    223656.49064828
  -Hartree energ DENC   =   -260417.19257077
  -exchange      EXHF   =         0.00000000
  -V(xc)+E(xc)   XCENC  =       906.65719059
  PAW double counting   =     43877.47765866   -42959.39151003
  entropy T*S    EENTRO =        -0.32096406
  eigenvalues    EBANDS =     -3778.81839293
  atomic energy  EATOM  =     37193.95212048
  Solvation  Ediel_sol  =         0.00000000
  ---------------------------------------------------
  free energy    TOTEN  =      -542.53799881 eV

  energy without entropy =     -542.21703475  energy(sigma->0) =     -542.37751678


--------------------------------------------------------------------------------------------------------




--------------------------------------- Iteration      1(  11)  ---------------------------------------


    POTLOK:  cpu time    0.0743: real time    0.0743
    SETDIJ:  cpu time    0.0105: real time    0.0105
    EDDIAG:  cpu time    2.3115: real time    2.3118
  RMM-DIIS:  cpu time    7.5497: real time    7.5507
    ORTHCH:  cpu time    0.7641: real time    0.7642
       DOS:  cpu time    0.0070: real time    0.0070
    CHARGE:  cpu time    0.7741: real time    0.7742
    MIXING:  cpu time    0.0040: real time    0.0040
    --------------------------------------------
      LOOP:  cpu time   11.4951: real time   11.4966

 eigenvalue-minimisations  :  4648
 total energy-change (2. order) : 0.5069563E+01  (-0.1250040E+01)
 number of electron     552.0000387 magnetization 
 augmentation part      128.9705709 magnetization 

 DIPCOR: dipole corrections for dipol
 direction  3 min pos     1,
 dipolmoment           0.000000      0.000000     -0.627873 electrons x Angstroem
 Tr[quadrupol]     -7484.589468

 energy correction for charged system         0.000000 eV
 dipol+quadrupol energy correction           -0.013627 eV
 added-field ion interaction        -73.400882 eV  (added to PSCEN)


 Broyden mixing:
  rms(total) = 0.31836E+01    rms(broyden)= 0.31763E+01
  rms(prec ) = 0.34075E+01
  weight for this iteration     100.00

 eigenvalues of (default mixing * dielectric matrix)
  average eigenvalue GAMMA=   0.7201
  2.3146  0.9300  0.3488  0.3488  0.2422  0.1363

 Free energy of the ion-electron system (eV)
  ---------------------------------------------------
  alpha Z        PSCENC =       790.17247626
  Ewald energy   TEWEN  =    223656.49064828
  -Hartree energ DENC   =   -260747.71976407
  -exchange      EXHF   =         0.00000000
  -V(xc)+E(xc)   XCENC  =       907.48162133
  PAW double counting   =     44736.82864640   -43819.82545339
  entropy T*S    EENTRO =        -0.37583872
  eigenvalues    EBANDS =     -3254.47289280
  atomic energy  EATOM  =     37193.95212048
  Solvation  Ediel_sol  =         0.00000000
  ---------------------------------------------------
  free energy    TOTEN  =      -537.46843622 eV

  energy without entropy =     -537.09259750  energy(sigma->0) =     -537.28051686


--------------------------------------------------------------------------------------------------------




--------------------------------------- Iteration      1(  12)  ---------------------------------------


    POTLOK:  cpu time    0.0757: real time    0.0757
    SETDIJ:  cpu time    0.0107: real time    0.0107
    EDDIAG:  cpu time    2.6945: real time    2.6954
  RMM-DIIS:  cpu time    7.6733: real time    7.6743
    ORTHCH:  cpu time    0.7454: real time    0.7456
       DOS:  cpu time    0.0070: real time    0.0070
    CHARGE:  cpu time    0.7610: real time    0.7611
    MIXING:  cpu time    0.0040: real time    0.0040
    --------------------------------------------
      LOOP:  cpu time   11.9716: real time   11.9736

 eigenvalue-minimisations  :  4634
 total energy-change (2. order) : 0.6878339E+01  (-0.7749357E+00)
 number of electron     552.0000369 magnetization 
 augmentation part      129.1077031 magnetization 

 DIPCOR: dipole corrections for dipol
 direction  3 min pos     1,
 dipolmoment           0.000000      0.000000     -0.632987 electrons x Angstroem
 Tr[quadrupol]     -7483.824139

 energy correction for charged system         0.000000 eV
 dipol+quadrupol energy correction           -0.013850 eV
 added-field ion interaction        -73.998699 eV  (added to PSCEN)


 Broyden mixing:
  rms(total) = 0.14986E+01    rms(broyden)= 0.14979E+01
  rms(prec ) = 0.16031E+01
  weight for this iteration     100.00

 eigenvalues of (default mixing * dielectric matrix)
  average eigenvalue GAMMA=   0.6935
  2.3789  1.0251  0.3870  0.3870  0.2705  0.2705  0.1353

 Free energy of the ion-electron system (eV)
  ---------------------------------------------------
  alpha Z        PSCENC =       789.57443553
  Ewald energy   TEWEN  =    223656.49064828
  -Hartree energ DENC   =   -260737.57527023
  -exchange      EXHF   =         0.00000000
  -V(xc)+E(xc)   XCENC  =       906.82439115
  PAW double counting   =     45324.00828265   -44411.51556598
  entropy T*S    EENTRO =        -0.46173236
  eigenvalues    EBANDS =     -3251.88740708
  atomic energy  EATOM  =     37193.95212048
  Solvation  Ediel_sol  =         0.00000000
  ---------------------------------------------------
  free energy    TOTEN  =      -530.59009755 eV

  energy without entropy =     -530.12836519  energy(sigma->0) =     -530.35923137


--------------------------------------------------------------------------------------------------------




--------------------------------------- Iteration      1(  13)  ---------------------------------------


    POTLOK:  cpu time    0.0739: real time    0.0746
    SETDIJ:  cpu time    0.0105: real time    0.0105
    EDDIAG:  cpu time    2.4682: real time    2.4685
  RMM-DIIS:  cpu time    7.6408: real time    7.6418
    ORTHCH:  cpu time    0.7537: real time    0.7538
       DOS:  cpu time    0.0069: real time    0.0069
    CHARGE:  cpu time    0.5762: real time    0.5763
    MIXING:  cpu time    0.0051: real time    0.0051
    --------------------------------------------
      LOOP:  cpu time   11.5353: real time   11.5375

 eigenvalue-minimisations  :  4636
 total energy-change (2. order) : 0.1813215E+01  (-0.3862968E+00)
 number of electron     552.0000355 magnetization 
 augmentation part      128.9012943 magnetization 

 DIPCOR: dipole corrections for dipol
 direction  3 min pos     1,
 dipolmoment           0.000000      0.000000     -0.730238 electrons x Angstroem
 Tr[quadrupol]     -7486.003292

 energy correction for charged system         0.000000 eV
 dipol+quadrupol energy correction           -0.018433 eV
 added-field ion interaction        -85.367651 eV  (added to PSCEN)


 Broyden mixing:
  rms(total) = 0.90815E+00    rms(broyden)= 0.90798E+00
  rms(prec ) = 0.97906E+00
  weight for this iteration     100.00

 eigenvalues of (default mixing * dielectric matrix)
  average eigenvalue GAMMA=   0.6481
  2.2681  1.0554  0.4119  0.4119  0.3444  0.3444  0.1357  0.2128

 Free energy of the ion-electron system (eV)
  ---------------------------------------------------
  alpha Z        PSCENC =       778.20090087
  Ewald energy   TEWEN  =    223656.49064828
  -Hartree energ DENC   =   -260804.31862143
  -exchange      EXHF   =         0.00000000
  -V(xc)+E(xc)   XCENC  =       906.61411369
  PAW double counting   =     45432.15036581   -44519.93045655
  entropy T*S    EENTRO =        -0.37377704
  eigenvalues    EBANDS =     -3171.56217695
  atomic energy  EATOM  =     37193.95212048
  Solvation  Ediel_sol  =         0.00000000
  ---------------------------------------------------
  free energy    TOTEN  =      -528.77688283 eV

  energy without entropy =     -528.40310579  energy(sigma->0) =     -528.58999431


--------------------------------------------------------------------------------------------------------




--------------------------------------- Iteration      1(  14)  ---------------------------------------


    POTLOK:  cpu time    0.0763: real time    0.0783
    SETDIJ:  cpu time    0.0100: real time    0.0108
    EDDIAG:  cpu time    2.5631: real time    2.5635
  RMM-DIIS:  cpu time    7.5830: real time    7.5840
    ORTHCH:  cpu time    0.7486: real time    0.7487
       DOS:  cpu time    0.0066: real time    0.0066
    CHARGE:  cpu time    0.7496: real time    0.7497
    MIXING:  cpu time    0.0050: real time    0.0050
    --------------------------------------------
      LOOP:  cpu time   11.7422: real time   11.7465

 eigenvalue-minimisations  :  4669
 total energy-change (2. order) : 0.4117887E+00  (-0.8453888E-01)
 number of electron     552.0000354 magnetization 
 augmentation part      128.7920972 magnetization 

 DIPCOR: dipole corrections for dipol
 direction  3 min pos     1,
 dipolmoment           0.000000      0.000000     -0.863121 electrons x Angstroem
 Tr[quadrupol]     -7485.152588

 energy correction for charged system         0.000000 eV
 dipol+quadrupol energy correction           -0.025752 eV
 added-field ion interaction       -100.902247 eV  (added to PSCEN)


 Broyden mixing:
  rms(total) = 0.62308E+00    rms(broyden)= 0.62303E+00
  rms(prec ) = 0.65025E+00
  weight for this iteration     100.00

 eigenvalues of (default mixing * dielectric matrix)
  average eigenvalue GAMMA=   0.6094
  2.2292  1.0612  0.4278  0.4278  0.3736  0.3736  0.1356  0.2279  0.2279

 Free energy of the ion-electron system (eV)
  ---------------------------------------------------
  alpha Z        PSCENC =       762.65898644
  Ewald energy   TEWEN  =    223656.49064828
  -Hartree energ DENC   =   -260811.88278395
  -exchange      EXHF   =         0.00000000
  -V(xc)+E(xc)   XCENC  =       906.68239242
  PAW double counting   =     45318.11933941   -44404.96615245
  entropy T*S    EENTRO =        -0.37283009
  eigenvalues    EBANDS =     -3149.04681466
  atomic energy  EATOM  =     37193.95212048
  Solvation  Ediel_sol  =         0.00000000
  ---------------------------------------------------
  free energy    TOTEN  =      -528.36509413 eV

  energy without entropy =     -527.99226403  energy(sigma->0) =     -528.17867908


--------------------------------------------------------------------------------------------------------




--------------------------------------- Iteration      1(  15)  ---------------------------------------


    POTLOK:  cpu time    0.0743: real time    0.0774
    SETDIJ:  cpu time    0.0101: real time    0.0108
    EDDIAG:  cpu time    2.5942: real time    2.5945
  RMM-DIIS:  cpu time    7.9269: real time    7.9279
    ORTHCH:  cpu time    0.6764: real time    0.6765
       DOS:  cpu time    0.0065: real time    0.0065
    CHARGE:  cpu time    0.7924: real time    0.7925
    MIXING:  cpu time    0.0051: real time    0.0051
    --------------------------------------------
      LOOP:  cpu time   12.0859: real time   12.0913

 eigenvalue-minimisations  :  4669
 total energy-change (2. order) : 0.1023485E+00  (-0.1876814E-01)
 number of electron     552.0000353 magnetization 
[...]
   -.413E+02 -.337E+02 -.122E+04   0.247E+02 0.486E+02 0.119E+04   0.171E+02 -.142E+02 0.332E+02   0.580E-02 0.905E-02 0.335E-01
   0.133E+02 0.694E+02 -.114E+04   -.178E+02 -.108E+03 0.115E+04   0.387E+01 0.391E+02 -.133E+02   -.230E-02 0.930E-02 0.563E-01
   0.782E+02 0.858E+02 -.127E+04   -.108E+03 -.112E+03 0.127E+04   0.295E+02 0.244E+02 -.816E+01   -.576E-03 -.527E-03 0.565E-01
   -.360E+02 -.843E+01 -.126E+04   0.474E+02 0.176E+02 0.129E+04   -.106E+02 -.768E+01 -.386E+02   -.297E-02 -.155E-01 0.311E-01
   -.324E+02 -.538E+02 -.125E+04   0.493E+02 0.863E+02 0.127E+04   -.184E+02 -.329E+02 -.232E+02   0.208E-02 0.156E-01 0.443E-01
   -.391E+02 -.223E+02 -.103E+04   0.565E+02 0.240E+02 0.106E+04   -.187E+02 -.156E+01 -.335E+02   0.161E-01 -.443E-02 0.930E-01
   -.293E+02 0.586E+02 -.990E+03   0.513E+02 -.901E+02 0.977E+03   -.223E+02 0.321E+02 0.136E+02   0.145E-02 -.355E-01 0.871E-02
   0.314E+02 0.558E+02 -.111E+04   -.710E+02 -.621E+02 0.110E+04   0.403E+02 0.712E+01 0.643E+01   -.618E-02 -.173E-01 0.549E-01
   -.538E+01 -.126E+02 -.101E+04   0.214E+02 0.430E+01 0.105E+04   -.148E+02 0.724E+01 -.349E+02   -.283E-01 0.205E-01 0.935E-01
   -.388E+02 -.555E+02 -.118E+04   0.520E+02 0.921E+02 0.120E+04   -.134E+02 -.375E+02 -.164E+02   0.321E-02 0.285E-01 0.465E-01
   0.250E+02 -.849E+02 -.114E+04   -.533E+02 0.119E+03 0.116E+04   0.276E+02 -.335E+02 -.120E+02   0.621E-02 0.882E-02 0.604E-01
   0.860E+01 -.898E+02 -.114E+04   -.171E+01 0.131E+03 0.113E+04   -.564E+01 -.416E+02 0.988E+01   -.502E-02 -.173E-02 0.477E-01
   -.512E+02 -.167E+02 -.121E+04   0.869E+02 0.113E+01 0.119E+04   -.339E+02 0.162E+02 0.276E+02   -.152E-01 0.862E-02 0.298E-01
   0.333E+02 0.239E+01 -.108E+04   -.523E+02 0.350E+02 0.108E+04   0.182E+02 -.374E+02 0.208E+01   0.622E-02 -.771E-02 0.626E-01
   -.466E+02 -.577E+02 -.100E+04   0.793E+02 0.739E+02 0.980E+03   -.325E+02 -.169E+02 0.233E+02   0.165E-01 0.151E-01 0.863E-01
   0.188E+02 0.217E+00 -.107E+04   -.303E+02 0.359E+02 0.105E+04   0.132E+02 -.352E+02 0.192E+02   -.145E-01 0.308E-03 0.500E-01
   0.441E+02 0.293E+02 -.128E+04   -.259E+02 0.428E+00 0.130E+04   -.187E+02 -.305E+02 -.227E+02   0.187E-02 -.730E-02 0.260E-01
   -.842E+00 -.248E+01 0.280E+04   0.581E+00 0.308E+01 -.280E+04   0.589E-01 -.189E-01 -.120E+01   0.185E+00 -.619E+00 -.247E+00
   0.266E+01 -.304E+01 0.281E+04   -.225E+01 0.356E+01 -.281E+04   -.720E-01 0.979E-02 -.109E+01   -.318E+00 -.549E+00 -.389E+00
   -.182E+01 -.256E+01 0.281E+04   0.168E+01 0.292E+01 -.281E+04   -.676E-02 0.409E-01 -.124E+01   0.134E+00 -.491E+00 -.464E+00
   -.846E+00 -.541E+00 0.280E+04   0.898E+00 0.379E+00 -.280E+04   -.152E+00 -.467E-01 -.114E+01   0.211E+00 0.208E+00 -.411E+00
   0.959E+00 0.927E+00 0.280E+04   -.756E+00 -.118E+01 -.280E+04   -.746E-01 0.588E-01 -.111E+01   -.111E+00 0.127E+00 -.380E+00
   0.241E+00 -.160E+01 0.280E+04   -.112E+00 0.134E+01 -.280E+04   0.180E-02 0.339E-01 -.113E+01   -.994E-01 0.192E+00 -.531E+00
   0.886E+00 0.264E+01 0.281E+04   -.996E+00 -.317E+01 -.281E+04   0.355E-02 -.364E-01 -.113E+01   0.102E+00 0.588E+00 -.110E+00
   -.267E+00 0.289E+01 0.281E+04   0.660E+00 -.336E+01 -.280E+04   -.854E-01 -.391E-01 -.132E+01   -.278E+00 0.527E+00 -.287E+00
   -.251E+00 0.300E+01 0.280E+04   0.310E+00 -.348E+01 -.280E+04   -.760E-01 0.152E-01 -.123E+01   0.176E+00 0.472E+00 -.350E+00
   -.133E+01 0.222E+00 0.281E+04   0.930E+00 0.146E+00 -.281E+04   0.282E-01 -.118E+00 -.981E+00   0.363E+00 -.188E+00 -.140E+00
   0.148E+01 -.682E+00 0.281E+04   -.117E+01 0.871E+00 -.281E+04   -.894E-01 -.256E-01 -.110E+01   -.187E+00 -.117E+00 0.596E-02
   -.172E+00 0.129E+01 0.281E+04   0.196E+00 -.110E+01 -.281E+04   0.110E+00 -.569E-02 -.112E+01   -.175E+00 -.149E+00 -.300E+00
   -.215E+02 -.820E+01 0.985E+03   0.213E+02 0.868E+01 -.985E+03   0.105E+00 -.968E-01 0.744E+00   0.382E+00 -.348E+00 -.393E+00
   0.111E+02 -.989E+01 0.959E+03   -.110E+02 0.104E+02 -.959E+03   -.570E-01 0.223E-01 0.106E+01   -.187E+00 -.497E+00 -.415E+00
   0.111E+02 -.173E+02 0.996E+03   -.110E+02 0.179E+02 -.995E+03   -.112E+00 -.486E-01 0.325E+00   -.194E+00 -.349E+00 -.379E+00
   0.140E+02 0.161E+02 0.978E+03   -.141E+02 -.167E+02 -.978E+03   -.445E+00 -.198E+00 0.392E+00   0.961E-01 0.507E+00 -.374E+00
   -.762E+01 0.601E+01 0.976E+03   0.802E+01 -.653E+01 -.975E+03   0.292E-01 0.653E-01 0.613E+00   -.343E+00 0.454E+00 -.382E+00
   0.392E+01 -.551E+01 0.966E+03   -.409E+01 0.513E+01 -.966E+03   -.197E+00 0.742E-01 0.831E+00   0.247E+00 0.413E+00 -.399E+00
   0.749E+01 0.177E+02 0.989E+03   -.761E+01 -.179E+02 -.988E+03   -.482E+00 -.330E+00 0.250E+00   0.464E+00 0.364E+00 -.610E+00
   -.392E+01 0.869E+01 0.998E+03   0.411E+01 -.917E+01 -.997E+03   0.170E+00 -.931E-01 0.273E+00   -.265E+00 0.453E+00 -.590E+00
   0.173E+00 0.188E+02 0.990E+03   0.170E+00 -.193E+02 -.989E+03   -.289E+00 -.143E-01 0.442E+00   -.198E+00 0.325E+00 -.560E+00
   0.320E+01 -.160E+02 0.979E+03   -.350E+01 0.164E+02 -.978E+03   -.188E-01 0.196E+00 0.663E+00   0.237E+00 -.490E+00 -.633E+00
   0.679E+01 -.542E+01 0.101E+04   -.635E+01 0.588E+01 -.101E+04   0.708E-01 -.783E-01 0.282E+00   -.516E+00 -.407E+00 -.559E+00
   -.154E+02 -.180E+01 0.100E+04   0.153E+02 0.208E+01 -.100E+04   0.104E+00 0.204E+00 0.302E+00   0.278E+00 -.425E+00 -.537E+00
   -.443E+02 0.150E+02 -.842E+03   0.441E+02 -.136E+02 0.842E+03   0.435E+00 -.208E+01 0.469E-01   0.233E+00 -.268E+00 -.196E+00
   0.379E+02 -.582E+02 -.798E+03   -.370E+02 0.584E+02 0.798E+03   -.190E+01 0.140E+01 0.524E+00   -.886E-01 -.295E+00 -.328E+00
   0.230E+02 -.161E+02 -.767E+03   -.228E+02 0.169E+02 0.767E+03   -.404E+00 -.171E+00 0.279E+00   -.175E+00 -.291E+00 -.744E-01
   -.372E+02 0.263E+01 -.898E+03   0.366E+02 -.285E+01 0.897E+03   0.906E+00 0.239E+00 0.170E-01   0.129E+00 -.219E-01 -.374E-01
   0.300E+02 -.527E+01 -.821E+03   -.292E+02 0.568E+01 0.821E+03   -.109E+01 -.608E+00 -.247E+00   -.219E+00 -.611E-01 0.757E-01
   0.145E+02 -.621E+02 -.788E+03   -.142E+02 0.617E+02 0.788E+03   -.702E+00 0.126E+01 -.266E-02   0.979E-01 -.281E-01 0.106E+00
   0.124E+02 0.186E+02 -.874E+03   -.134E+02 -.197E+02 0.873E+03   0.112E+01 0.105E+01 0.474E+00   0.216E+00 0.234E+00 -.116E+00
   -.273E+02 0.609E+01 -.761E+03   0.270E+02 -.777E+01 0.761E+03   0.934E+00 0.158E+01 0.836E+00   -.996E-01 0.296E+00 -.215E+00
   -.227E+01 0.339E+02 -.874E+03   0.179E+01 -.336E+02 0.873E+03   0.826E+00 -.131E+01 0.448E+00   -.131E+00 0.238E+00 -.179E-01
   0.555E+01 -.156E+02 -.670E+03   -.600E+01 0.156E+02 0.669E+03   0.160E+00 0.361E+00 0.218E+01   0.173E+00 0.668E-01 -.520E+00
   -.118E+02 0.449E+02 -.835E+03   0.119E+02 -.446E+02 0.835E+03   0.807E+00 -.109E+01 0.546E+00   -.261E+00 0.872E-01 -.350E+00
   -.433E+01 0.319E+02 -.723E+03   0.367E+01 -.319E+02 0.721E+03   0.803E+00 -.661E+00 0.292E+01   0.934E-01 0.420E-01 -.202E+00
 -----------------------------------------------------------------------------------------------
   0.113E+03 0.313E+02 0.343E+02   0.246E-12 0.334E-12 0.693E-11   -.113E+03 -.314E+02 -.245E+02   0.109E-01 0.631E-02 -.977E+01
 
 
 POSITION                                       TOTAL-FORCE (eV/Angst)
 -----------------------------------------------------------------------------------
      1.81258      4.37236     16.57875        -0.035531     -0.039979     -0.578180
      1.78267      4.68005     15.01714        -0.063161     -0.068170      0.335630
      6.38164      8.13180     15.07026        -0.363301      0.560602      0.386425
      6.60693      6.58807     15.49765        -0.184002     -0.132109     -0.213995
      5.14041      9.47451     16.53359        -0.463643     -0.219609      0.913729
      5.01655      0.48284     15.14869         0.476620     -0.855638      0.158876
      0.46541      6.93909     14.82154         1.434593      0.250195     -0.116442
      1.91112      7.82718     14.96106        -1.045891     -1.726373     -0.469492
      2.57930      2.07462     21.88537        -0.002835      0.139530     -0.396558
      3.27954      0.75558     22.02399         0.671937      0.137088     -0.343510
      6.51054      5.18459     19.27025         0.468814     -1.282945      0.018440
      6.55577      6.72659     19.39330        -1.610494     -1.727211      0.865469
      7.32073      3.94164     24.58922         0.067633      0.072759      0.137621
      6.37680      3.49210     23.49535        -0.574116      0.338234     -0.715214
      3.90258      7.68232     22.60497         0.190841      0.413407     -0.161935
      5.00377      8.84989     22.80520        -0.411396     -0.254816     -0.265609
      3.78097      7.02075     20.13549         0.560904     -0.331388      0.440900
      1.93306      1.40423     18.35045        -0.186094     -0.095445     -0.006855
      1.69278      7.96367     20.64010        -0.466571      0.482357      1.532917
      1.27779      8.95426     21.88428         0.246190      0.988806      0.125621
      5.57072      5.15248     21.35861        -0.637206     -1.126637      0.380270
      4.66797      3.83388     21.74171        -0.153308     -0.765942     -0.893420
      6.62244      0.47761     20.33843         0.242786     -0.144075      0.254068
      5.24442      1.05741     20.73803         1.579487      0.547860      0.456143
      6.79175      1.36583     16.08604         1.872264     -0.114734     -0.030329
      8.10781      1.79944     15.27794        -0.216563      0.025159      0.294506
      2.12403      0.43192     15.18074         0.171887     -0.499296     -0.125111
      2.25144      9.51077     16.61475        -0.085698     -0.316810     -0.485966
      7.99971      8.21182     20.24797         0.316638     -0.092643      1.211542
      8.17110      8.78696     18.88780        -1.096793     -0.378972      0.345631
      4.09472      3.78046     15.54417        -0.962013      0.303572     -0.558532
      5.05388      2.68262     14.92673        -0.304941      0.580425      0.010776
      7.21576      3.05024     18.08178         0.154361     -0.004681     -0.712317
      7.09538      2.53367     19.52697         0.183044      1.091827     -0.172252
      3.78805      1.98591     19.01625         0.366067     -0.653072      0.708967
      3.94970      2.64151     17.68605         0.420549      0.157776     -1.245940
      2.25701      4.11553     19.21092        -0.629429      0.905905     -0.696145
      0.76179      4.28175     18.94006        -0.595897     -0.003033      0.016371
      0.49973      1.61959     23.16725         0.137163     -0.396652     -0.968548
      7.89061      1.29732     22.10028        -1.963615      0.040656     -0.792501
      0.65626      1.17776     17.44609         0.669497     -0.743550      0.785978
      2.72094      6.49475     19.09230         0.140773      0.527477      0.617239
      6.09127      4.23663     16.47271         0.117963      0.819029     -0.423937
      6.02629      5.42256     17.44638        -0.450562      0.389907      0.659258
      4.13801      8.80623     18.68511        -0.400219     -0.867226      0.470514
      5.62130      9.39081     18.79179        -1.352393     -0.264238     -0.368941
      2.34958      6.23882     22.61240        -0.848586      0.461241     -0.167456
      3.68690      5.53009     22.60661         0.911098     -0.164901      0.050873
      1.96344      3.97843     15.68193         0.183787      0.153641      0.465359
      6.92094      7.33302     14.92376         0.893804     -0.779432     -0.259039
      5.64107      9.57773     15.71289        -0.522004      1.132842     -1.044547
      1.47614      6.87998     14.60498        -0.768406      2.241538      1.088980
      3.42745      1.65695     21.63146        -0.580273     -0.295941      0.509881
      5.94705      5.87778     19.62704         1.257128      2.986674     -0.578007
      7.02391      3.14760     24.11825         0.613516     -0.416283      0.494173
      4.25358      8.55882     22.24113         0.512464      0.738290      0.083603
      1.28874      0.70199     18.10222        -0.703794      0.646301     -1.030987
      1.02699      8.17147     21.39765         0.218956     -1.857102     -1.729421
      5.19522      4.55238     22.08716         0.794290      1.441618      0.308644
      6.24426      1.23601     20.83481        -1.475205     -0.482221     -0.645634
      7.78053      1.62245     16.19301        -1.277281      0.171793     -0.205997
      2.47151      9.27589     15.66116        -0.298962      0.558716      0.485921
      7.44042      8.38642     19.46484         0.721557      0.805909     -1.537864
      4.79363      3.15589     15.75730         1.132061     -1.050168      0.607991
      7.35722      3.34781     18.98941        -0.269757     -0.954836      0.886456
      3.48440      2.74530     18.51515        -0.644981      0.298364      0.630906
      1.58045      4.80992     18.92789         1.232716     -0.845223      0.407056
      0.47384      1.22330     22.24552         1.850429      0.600587      2.008808
      3.02330      7.29190     19.61199        -0.773965     -0.064699     -1.150755
      6.49548      5.13813     16.65983         0.198536     -0.756057     -0.569930
      4.68817      9.56227     18.45819         1.633564      0.889865     -0.154940
      3.26240      6.36287     22.88768        -0.437919     -0.767245      0.481359
      1.39098      0.80308      7.85055        -0.018119     -0.040864     -0.435239
      4.17294      0.80308      7.85055         0.028828     -0.013899     -0.443599
      6.95491      0.80308      7.85055        -0.021211     -0.096732     -0.457500
      0.00000      3.21233      7.85055         0.109823     -0.001133     -0.362190
      2.78196      3.21233      7.85055         0.019035     -0.065187     -0.477370
      5.56393      3.21233      7.85055         0.031266     -0.037048     -0.329336
      1.39098      5.62158      7.85055        -0.002553      0.026391     -0.419379
      4.17294      5.62158      7.85055         0.027285      0.018659     -0.394003
      6.95491      5.62158      7.85055         0.158898      0.012685     -0.442912
      0.00000      8.03084      7.85055        -0.012740      0.060720     -0.389402
      2.78196      8.03084      7.85055         0.040398      0.044480     -0.393981
      5.56393      8.03084      7.85055        -0.041821      0.031954     -0.420244
      0.00000      1.60617     10.12201         0.261065      0.035930      0.423566
      2.78196      1.60617     10.12201        -0.137160      0.060913      0.901908
      5.56393      1.60617     10.12201        -0.157769      0.143770      0.267948
      1.39098      4.01542     10.12201        -0.348492     -0.219695      0.413987
      4.17294      4.01542     10.12201         0.118882     -0.004259      0.538224
      6.95491      4.01542     10.12201        -0.079614      0.115689      0.755950
      0.00000      6.42467     10.12201        -0.107029     -0.208146      0.647911
      2.78196      6.42467     10.12201         0.129042     -0.098596      0.283576
      5.56393      6.42467     10.12201        -0.119641     -0.156804      0.467317
      1.39098      8.83392     10.12201        -0.099581      0.138913      0.809650
      4.17294      8.83392     10.12201        -0.001945     -0.018524      0.192584
      6.95491      8.83392     10.12201         0.188992      0.048702      0.447630
      8.33207      0.07192     12.55320         0.477972     -0.829437     -0.306261
      2.88226      9.56617     12.48204        -1.005306      1.283725     -0.232862
      5.58686      9.63648     12.43146        -0.327079      0.297130      0.136914
      1.31624      2.36993     12.63577         0.414688     -0.006529     -0.354578
      4.22736      2.45756     12.51774        -0.507023     -0.216593     -0.189387
      6.95256      2.31012     12.44023        -0.263814      0.702512      0.375652
      8.12993      4.72959     12.58881         0.192290      0.121593     -0.519164
      2.60858      4.70470     12.39377         0.447183      0.130407      0.204641
      5.38125      4.96475     12.55616         0.157178     -0.675692     -0.290453
      1.29500      7.12844     12.41979        -0.138849      0.287584      0.113555
      4.02872      7.27781     12.47480         0.615611     -0.698985     -0.092637
      6.83498      7.28410     12.44531         0.215358     -0.612396      0.248054
 -----------------------------------------------------------------------------------
    total drift:                                0.031157     -0.078163      0.099173


--------------------------------------------------------------------------------------------------------



  FREE ENERGIE OF THE ION-ELECTRON SYSTEM (eV)
  ---------------------------------------------------
  free  energy   TOTEN  =      -558.48802557 eV

  energy  without entropy=     -558.09045044  energy(sigma->0) =     -558.28923800
 
 d Force = 0.5178665E-01[-0.161E+00, 0.265E+00]  d Energy = 0.5110580E-01 0.681E-03
 d Force =-0.2366832E+02[-0.235E+02,-0.239E+02]  d Ewald  =-0.2367084E+02 0.252E-02


--------------------------------------------------------------------------------------------------------


    POTLOK:  cpu time    0.2650: real time    0.2651


--------------------------------------------------------------------------------------------------------


 stress matrix after NEB project (eV)
    -25.77913      0.29621     -0.55553
      0.29621    -25.86595     -0.00455
     -0.55553     -0.00455    -17.77250
  FORCES: max atom, RMS     3.291608    1.124348
  FORCE total and by dimension   11.684566    2.986674
  Stress total and by dimension   40.623454   25.865947
           RANDOM_SEED =         566189573                0                0
   IONSTEP:  cpu time    0.0002: real time    0.0002

  ENERGY OF THE ELECTRON-ION-THERMOSTAT SYSTEM (eV)
  ---------------------------------------------------
% ion-electron   TOTEN  =      -558.488026  see above
  kinetic energy EKIN   =         3.320347
  kin. lattice  EKIN_LAT=         0.000000  (temperature  305.80 K)
  nose potential ES     =        12.132813
  nose kinetic   EPS    =         0.005406
  ---------------------------------------------------
  total energy   ETOTAL =      -543.029460 eV

  maximum distance moved by ions :      0.51E-02


 mean value of Nose-termostat <S>:     6.439 mean value of <T> :   304.382
 mean temperature <T/S>/<1/S>  :   304.378

    WAVPRE:  cpu time    2.3279: real time    2.3425
    FEWALD:  cpu time    0.0034: real time    0.0034

 real space projection operators:
  total allocation   :      12619.34 KBytes
  max/ min on nodes  :        643.09        284.31

    ORTHCH:  cpu time    1.7940: real time    1.7942
 Prediction of Wavefunctions ALPHA= 1.792 BETA=-0.888
    POTLOK:  cpu time    0.1043: real time    0.1044
    EDDIAG:  cpu time    2.6262: real time    2.6265
     LOOP+:  cpu time  110.2007: real time  110.2459
    4ORBIT:  cpu time    0.0000: real time    0.0000

 total amount of memory used by VASP MPI-rank0   274526. kBytes
=======================================================================

   base      :      30000. kBytes
   nonlr-proj:       4013. kBytes
   fftplans  :       4483. kBytes
   grid      :       8517. kBytes
   one-center:         77. kBytes
   wavefun   :     227436. kBytes
 
  
  
 General timing and accounting informations for this job:
 ========================================================
  
                  Total CPU time used (sec):      780.943
                            User time (sec):      765.550
                          System time (sec):       15.393
                         Elapsed time (sec):      781.197
  
                   Maximum memory used (kb):      447264.
                   Average memory used (kb):           0.
  
                          Minor page faults:       151131
                          Major page faults:            0
                 Voluntary context switches:         1361
