<?xml version="1.0" encoding="ISO-8859-1"?>
<modeling>
 <generator>
  <i name="program" type="string">vasp </i>
  <i name="version" type="string">5.4.4.18Apr17-6-g9f103f2a35  </i>
  <i name="subversion" type="string">(build Feb 25 2019 10:51:38) complex            parallel </i>
  <i name="platform" type="string">LinuxIFC </i>
  <i name="date" type="string">2020 03 19 </i>
  <i name="time" type="string">20:28:29 </i>
 </generator>
 <incar>
  <i type="string" name="SYSTEM"> PtH2O</i>
  <i type="int" name="ISTART">     0</i>
  <i type="string" name="PREC">normal</i>
  <i type="string" name="ALGO"> Fast</i>
  <i type="int" name="NELM">   200</i>
  <i type="int" name="IBRION">     0</i>
  <i name="EDIFF">      0.00010000</i>
  <i name="EDIFFG">      0.00000000</i>
  <i type="int" name="NSW">     3</i>
  <i name="ENCUT">    400.00000000</i>
  <i name="POTIM">      1.00000000</i>
  <i name="TEBEG">    300.00000000</i>
  <i name="SMASS">      0.00000000</i>
  <i type="string" name="LREAL"> AUTO</i>
  <i type="int" name="ISMEAR">     0</i>
  <i name="SIGMA">      0.10000000</i>
  <i type="logical" name="LWAVE"> F  </i>
  <i type="logical" name="LCHARG"> F  </i>
  <i type="int" name="MDALGO">     0</i>
  <v type="int" name="KPOINT_BSE">    -1     0     0     0</v>
  <i type="int" name="NELM">   200</i>
  <i type="string" name="GGA"> RP</i>
  <i type="logical" name="LDIPOL"> T  </i>
  <i type="int" name="IDIPOL">     3</i>
  <v name="DIPOL">      0.50000000      0.50000000      0.50000000</v>
 </incar>
 <structure name="primitive_cell" >
  <crystal>
   <varray name="basis" >
    <v>       8.34588864       0.00000000       0.00000000 </v>
    <v>       0.00000000       9.63700211       0.00000000 </v>
    <v>       0.00000000       0.00000000      32.54292636 </v>
   </varray>
   <i name="volume">   2617.40629856 </i>
   <varray name="rec_basis" >
    <v>       0.11981948       0.00000000       0.00000000 </v>
    <v>       0.00000000       0.10376671       0.00000000 </v>
    <v>       0.00000000       0.00000000       0.03072864 </v>
   </varray>
  </crystal>
  <varray name="positions" >
   <v>       0.21304072       0.45473931      -0.49153363 </v>
   <v>       0.23732503       0.41305842       0.48205722 </v>
   <v>       0.21313953       0.48322638       0.46223750 </v>
   <v>       0.18984143       0.49810886      -0.41863821 </v>
   <v>       0.49219629       0.39173037       0.47655866 </v>
   <v>       0.09049688       0.44247483      -0.41720058 </v>
   <v>       0.26592930       0.42601696      -0.41140432 </v>
   <v>       0.47460863       0.27484346      -0.45704081 </v>
   <v>       0.41679770       0.28517072      -0.43129392 </v>
   <v>       0.17643603      -0.28698079       0.44872599 </v>
   <v>       0.05664838      -0.27842889       0.45643511 </v>
   <v>      -0.42647041       0.32688353       0.48433762 </v>
   <v>       0.32747525      -0.32024247      -0.41416335 </v>
   <v>       0.08650200       0.12460991      -0.46236073 </v>
   <v>       0.23432551       0.14209239      -0.43684664 </v>
   <v>      -0.02923552       0.18783654       0.46888216 </v>
   <v>      -0.14200896       0.31473033      -0.44495561 </v>
   <v>      -0.06800019       0.16886856       0.49759140 </v>
   <v>      -0.22056006      -0.46602327      -0.48831001 </v>
   <v>       0.22729339      -0.18686608       0.45858715 </v>
   <v>      -0.11880223       0.34760765      -0.41648562 </v>
   <v>       0.46042218       0.20984795      -0.41513518 </v>
   <v>       0.15492939       0.07277627      -0.44363597 </v>
   <v>      -0.39302167       0.28173623       0.45854343 </v>
   <v>      -0.27422779       0.44177779      -0.49521418 </v>
   <v>       0.25950972       0.04432755       0.46650293 </v>
   <v>       0.31257618       0.48855631       0.38084694 </v>
   <v>      -0.20992094      -0.31530888       0.47410776 </v>
   <v>      -0.27988001      -0.43604852      -0.46455079 </v>
   <v>       0.36297681      -0.24295252      -0.39702286 </v>
   <v>       0.15744833       0.24610335       0.38832232 </v>
   <v>      -0.02649702       0.49088964       0.38689777 </v>
   <v>      -0.18244487       0.14457686       0.49575877 </v>
   <v>       0.27690745      -0.01032792      -0.48943363 </v>
   <v>      -0.21236842      -0.46276216      -0.40810670 </v>
   <v>      -0.17055421      -0.23890597       0.45865413 </v>
   <v>      -0.14520038       0.26413980      -0.39757373 </v>
   <v>       0.29615489      -0.03690076       0.48118050 </v>
   <v>       0.45781954      -0.27318112      -0.38190529 </v>
   <v>       0.15484848      -0.26055022       0.38165429 </v>
   <v>      -0.49330665       0.25482928       0.38470810 </v>
   <v>      -0.22270815      -0.30648987      -0.40298599 </v>
   <v>      -0.39905987       0.05133927       0.46527834 </v>
   <v>      -0.02201263      -0.08551897      -0.41833415 </v>
   <v>      -0.28710524      -0.38939551      -0.39664424 </v>
   <v>      -0.35472791      -0.48508441       0.38583878 </v>
   <v>       0.49351414      -0.08826960      -0.42614528 </v>
   <v>       0.20113777      -0.17661813      -0.36515157 </v>
   <v>      -0.23199929      -0.15604941       0.46389812 </v>
   <v>       0.48295249      -0.24506636       0.38333483 </v>
   <v>      -0.16685278       0.23941238       0.38235599 </v>
   <v>      -0.43974466      -0.00785232      -0.43274330 </v>
   <v>      -0.11195112      -0.12742066      -0.40219150 </v>
   <v>      -0.38066448      -0.01744196      -0.49108789 </v>
   <v>      -0.04352377      -0.14655295      -0.37804528 </v>
   <v>       0.30995377       0.21739743      -0.32622195 </v>
   <v>      -0.44038321       0.39640487      -0.33280219 </v>
   <v>      -0.32322118      -0.00583280       0.48256782 </v>
   <v>      -0.18068858      -0.24455069       0.38234597 </v>
   <v>       0.41221577       0.17200732      -0.33514020 </v>
   <v>       0.34518137      -0.00767966       0.38364119 </v>
   <v>      -0.00134640       0.00751246       0.38569333 </v>
   <v>       0.12359361      -0.15252684      -0.34205927 </v>
   <v>      -0.32857214      -0.46693072      -0.34291364 </v>
   <v>       0.27805943      -0.35326524      -0.30565106 </v>
   <v>      -0.32699141      -0.02390498      -0.42170812 </v>
   <v>      -0.36996306       0.10722019      -0.36131184 </v>
   <v>       0.16666667       0.41666667       0.31103576 </v>
   <v>      -0.20416136       0.05070336      -0.37382716 </v>
   <v>       0.44761443      -0.42449092      -0.30509360 </v>
   <v>      -0.37968303       0.47320872      -0.32141558 </v>
   <v>      -0.25180220       0.12928821      -0.36000435 </v>
   <v>       0.05709588       0.12763679      -0.31659272 </v>
   <v>      -0.05675045       0.13081662      -0.32089752 </v>
   <v>       0.39448449       0.07992920      -0.32151888 </v>
   <v>       0.38993735      -0.34076358      -0.29659901 </v>
   <v>       0.33333333      -0.33333333       0.31103576 </v>
   <v>      -0.50000000       0.41666667       0.31103576 </v>
   <v>       0.00000000      -0.33333333       0.31103576 </v>
   <v>       0.15300227      -0.06926238      -0.32733051 </v>
   <v>       0.33333333       0.16666667       0.31103576 </v>
   <v>      -0.33001828       0.00000355       0.38190363 </v>
   <v>      -0.16666667       0.41666667       0.31103576 </v>
   <v>       0.00000000       0.16666667       0.31103576 </v>
   <v>       0.46249583      -0.20263655      -0.30399566 </v>
   <v>       0.06417007       0.16268027      -0.28854566 </v>
   <v>      -0.48875087      -0.11267725      -0.31669313 </v>
   <v>      -0.33333333      -0.33333333       0.31103576 </v>
   <v>       0.16666667      -0.08333333       0.31103576 </v>
   <v>      -0.33333333       0.16666667       0.31103576 </v>
   <v>      -0.24152804       0.35925057      -0.27781988 </v>
   <v>      -0.50000000      -0.08333333       0.31103576 </v>
   <v>      -0.15870002       0.32656124      -0.25867094 </v>
   <v>      -0.40231182      -0.08829451      -0.29949881 </v>
   <v>      -0.16666667      -0.08333333       0.31103576 </v>
   <v>      -0.13079306       0.41458479      -0.24328829 </v>
   <v>       0.16666667      -0.41666667       0.24123678 </v>
   <v>       0.33333333       0.33333333       0.24123678 </v>
   <v>       0.00000000       0.33333333       0.24123678 </v>
   <v>      -0.50000000      -0.41666667       0.24123678 </v>
   <v>      -0.16666667      -0.41666667       0.24123678 </v>
   <v>       0.16666667       0.08333333       0.24123678 </v>
   <v>       0.33333333      -0.16666667       0.24123678 </v>
   <v>      -0.33333333       0.33333333       0.24123678 </v>
   <v>       0.00000000      -0.16666667       0.24123678 </v>
   <v>      -0.50000000       0.08333333       0.24123678 </v>
   <v>      -0.16666667       0.08333333       0.24123678 </v>
   <v>      -0.33333333      -0.16666667       0.24123678 </v>
  </varray>
 </structure>
 <varray name="primitive_index" >
  <v type="int" >        1 </v>
  <v type="int" >       49 </v>
  <v type="int" >        2 </v>
  <v type="int" >       67 </v>
  <v type="int" >       31 </v>
  <v type="int" >       38 </v>
  <v type="int" >       37 </v>
  <v type="int" >       36 </v>
  <v type="int" >       66 </v>
  <v type="int" >       52 </v>
  <v type="int" >        7 </v>
  <v type="int" >       64 </v>
  <v type="int" >       42 </v>
  <v type="int" >       41 </v>
  <v type="int" >       18 </v>
  <v type="int" >       26 </v>
  <v type="int" >       33 </v>
  <v type="int" >       61 </v>
  <v type="int" >       70 </v>
  <v type="int" >        8 </v>
  <v type="int" >       65 </v>
  <v type="int" >       35 </v>
  <v type="int" >       57 </v>
  <v type="int" >       32 </v>
  <v type="int" >       43 </v>
  <v type="int" >       27 </v>
  <v type="int" >      104 </v>
  <v type="int" >        4 </v>
  <v type="int" >       44 </v>
  <v type="int" >       69 </v>
  <v type="int" >      100 </v>
  <v type="int" >      103 </v>
  <v type="int" >       25 </v>
  <v type="int" >       28 </v>
  <v type="int" >       11 </v>
  <v type="int" >       50 </v>
  <v type="int" >       34 </v>
  <v type="int" >       62 </v>
  <v type="int" >       17 </v>
  <v type="int" >      106 </v>
  <v type="int" >      101 </v>
  <v type="int" >       12 </v>
  <v type="int" >        6 </v>
  <v type="int" >       30 </v>
  <v type="int" >       54 </v>
  <v type="int" >      105 </v>
  <v type="int" >       45 </v>
  <v type="int" >       19 </v>
  <v type="int" >        3 </v>
  <v type="int" >      107 </v>
  <v type="int" >      102 </v>
  <v type="int" >       71 </v>
  <v type="int" >       63 </v>
  <v type="int" >        5 </v>
  <v type="int" >       29 </v>
  <v type="int" >        9 </v>
  <v type="int" >       22 </v>
  <v type="int" >       51 </v>
  <v type="int" >      108 </v>
  <v type="int" >       53 </v>
  <v type="int" >       98 </v>
  <v type="int" >       97 </v>
  <v type="int" >       58 </v>
  <v type="int" >       21 </v>
  <v type="int" >       47 </v>
  <v type="int" >       46 </v>
  <v type="int" >       24 </v>
  <v type="int" >       88 </v>
  <v type="int" >       23 </v>
  <v type="int" >       48 </v>
  <v type="int" >       59 </v>
  <v type="int" >       60 </v>
  <v type="int" >       68 </v>
  <v type="int" >       40 </v>
  <v type="int" >       10 </v>
  <v type="int" >       72 </v>
  <v type="int" >       92 </v>
  <v type="int" >       89 </v>
  <v type="int" >       91 </v>
  <v type="int" >       20 </v>
  <v type="int" >       86 </v>
  <v type="int" >       99 </v>
  <v type="int" >       90 </v>
  <v type="int" >       85 </v>
  <v type="int" >       15 </v>
  <v type="int" >       39 </v>
  <v type="int" >       56 </v>
  <v type="int" >       93 </v>
  <v type="int" >       94 </v>
  <v type="int" >       87 </v>
  <v type="int" >       14 </v>
  <v type="int" >       95 </v>
  <v type="int" >       55 </v>
  <v type="int" >       16 </v>
  <v type="int" >       96 </v>
  <v type="int" >       13 </v>
  <v type="int" >       79 </v>
  <v type="int" >       77 </v>
  <v type="int" >       76 </v>
  <v type="int" >       80 </v>
  <v type="int" >       81 </v>
  <v type="int" >       73 </v>
  <v type="int" >       83 </v>
  <v type="int" >       78 </v>
  <v type="int" >       82 </v>
  <v type="int" >       74 </v>
  <v type="int" >       75 </v>
  <v type="int" >       84 </v>
 </varray>
 <kpoints>
  <generation param="Gamma">
   <v type="int" name="divisions">       4        3        1 </v>
   <v name="usershift">      0.00000000       0.00000000       0.00000000 </v>
   <v name="genvec1">      0.25000000       0.00000000       0.00000000 </v>
   <v name="genvec2">      0.00000000       0.33333333       0.00000000 </v>
   <v name="genvec3">      0.00000000       0.00000000       1.00000000 </v>
   <v name="shift">      0.00000000       0.00000000       0.00000000 </v>
  </generation>
  <varray name="kpointlist" >
   <v>       0.00000000       0.00000000       0.00000000 </v>
   <v>       0.25000000       0.00000000       0.00000000 </v>
   <v>       0.50000000       0.00000000       0.00000000 </v>
   <v>       0.00000000       0.33333333       0.00000000 </v>
   <v>       0.25000000       0.33333333       0.00000000 </v>
   <v>       0.50000000       0.33333333       0.00000000 </v>
   <v>      -0.25000000       0.33333333       0.00000000 </v>
  </varray>
  <varray name="weights" >
   <v>       0.08333333 </v>
   <v>       0.16666667 </v>
   <v>       0.08333333 </v>
   <v>       0.16666667 </v>
   <v>       0.16666667 </v>
   <v>       0.16666667 </v>
   <v>       0.16666667 </v>
  </varray>
 </kpoints>
 <parameters>
  <separator name="general" >
   <i type="string" name="SYSTEM">PtH2O</i>
   <i type="logical" name="LCOMPAT"> F  </i>
  </separator>
  <separator name="electronic" >
   <i type="string" name="PREC">normal</i>
   <i name="ENMAX">    400.00000000</i>
   <i name="ENAUG">    605.39200000</i>
   <i name="EDIFF">      0.00010000</i>
   <i type="int" name="IALGO">    68</i>
   <i type="int" name="IWAVPR">    12</i>
   <i type="int" name="NBANDS">   331</i>
   <i name="NELECT">    552.00000000</i>
   <i type="int" name="TURBO">     0</i>
   <i type="int" name="IRESTART">     0</i>
   <i type="int" name="NREBOOT">     0</i>
   <i type="int" name="NMIN">     0</i>
   <i name="EREF">      0.00000000</i>
   <separator name="electronic smearing" >
    <i type="int" name="ISMEAR">     0</i>
    <i name="SIGMA">      0.10000000</i>
    <i name="KSPACING">      0.50000000</i>
    <i type="logical" name="KGAMMA"> T  </i>
   </separator>
   <separator name="electronic projectors" >
    <i type="logical" name="LREAL"> T  </i>
    <v name="ROPT">     -0.00050000     -0.00050000     -0.00050000</v>
    <i type="int" name="LMAXPAW">  -100</i>
    <i type="int" name="LMAXMIX">     2</i>
    <i type="logical" name="NLSPLINE"> F  </i>
   </separator>
   <separator name="electronic startup" >
    <i type="int" name="ISTART">     0</i>
    <i type="int" name="ICHARG">     2</i>
    <i type="int" name="INIWAV">     1</i>
   </separator>
   <separator name="electronic spin" >
    <i type="int" name="ISPIN">     1</i>
    <i type="logical" name="LNONCOLLINEAR"> F  </i>
    <v name="MAGMOM">      1.00000000      1.00000000      1.00000000      1.00000000      1.00000000      1.00000000      1.00000000      1.00000000      1.00000000      1.00000000      1.00000000      1.00000000      1.00000000      1.00000000      1.00000000      1.00000000      1.00000000      1.00000000      1.00000000      1.00000000
      1.00000000      1.00000000      1.00000000      1.00000000      1.00000000      1.00000000      1.00000000      1.00000000      1.00000000      1.00000000      1.00000000      1.00000000      1.00000000      1.00000000      1.00000000      1.00000000      1.00000000      1.00000000      1.00000000      1.00000000
      1.00000000      1.00000000      1.00000000      1.00000000      1.00000000      1.00000000      1.00000000      1.00000000      1.00000000      1.00000000      1.00000000      1.00000000      1.00000000      1.00000000      1.00000000      1.00000000      1.00000000      1.00000000      1.00000000      1.00000000
      1.00000000      1.00000000      1.00000000      1.00000000      1.00000000      1.00000000      1.00000000      1.00000000      1.00000000      1.00000000      1.00000000      1.00000000      1.00000000      1.00000000      1.00000000      1.00000000      1.00000000      1.00000000      1.00000000      1.00000000
      1.00000000      1.00000000      1.00000000      1.00000000      1.00000000      1.00000000      1.00000000      1.00000000      1.00000000      1.00000000      1.00000000      1.00000000      1.00000000      1.00000000      1.00000000      1.00000000      1.00000000      1.00000000      1.00000000      1.00000000
      1.00000000      1.00000000      1.00000000      1.00000000      1.00000000      1.00000000      1.00000000      1.00000000</v>
    <i name="NUPDOWN">     -1.00000000</i>
    <i type="logical" name="LSORBIT"> F  </i>
    <v name="SAXIS">      0.00000000      0.00000000      1.00000000</v>
    <i type="logical" name="LSPIRAL"> F  </i>
    <v name="QSPIRAL">      0.00000000      0.00000000      0.00000000</v>
    <i type="logical" name="LZEROZ"> F  </i>
   </separator>
   <separator name="electronic exchange-correlation" >
    <i type="logical" name="LASPH"> F  </i>
    <i type="logical" name="LMETAGGA"> F  </i>
   </separator>
   <separator name="electronic convergence" >
    <i type="int" name="NELM">   200</i>
    <i type="int" name="NELMDL">    -5</i>
    <i type="int" name="NELMIN">     2</i>
    <i name="ENINI">    400.00000000</i>
    <separator name="electronic convergence detail" >
     <i type="logical" name="LDIAG"> T  </i>
     <i type="logical" name="LSUBROT"> F  </i>
     <i name="WEIMIN">      0.00100000</i>
     <i name="EBREAK">      0.00000000</i>
     <i name="DEPER">      0.30000000</i>
     <i type="int" name="NRMM">     4</i>
     <i name="TIME">      0.40000000</i>
    </separator>
   </separator>
   <separator name="electronic mixer" >
    <i name="AMIX">      0.40000000</i>
    <i name="BMIX">      1.00000000</i>
    <i name="AMIN">      0.10000000</i>
    <i name="AMIX_MAG">      1.60000000</i>
    <i name="BMIX_MAG">      1.00000000</i>
    <separator name="electronic mixer details" >
     <i type="int" name="IMIX">     4</i>
     <i type="logical" name="MIXFIRST"> F  </i>
     <i type="int" name="MAXMIX">   -45</i>
     <i name="WC">    100.00000000</i>
     <i type="int" name="INIMIX">     1</i>
     <i type="int" name="MIXPRE">     1</i>
     <i type="int" name="MREMOVE">     5</i>
    </separator>
   </separator>
   <separator name="electronic dipolcorrection" >
    <i type="logical" name="LDIPOL"> T  </i>
    <i type="logical" name="LMONO"> F  </i>
    <i type="int" name="IDIPOL">     3</i>
    <i name="EPSILON">      1.00000000</i>
    <v name="DIPOL">      0.50000000      0.50000000      0.50000000</v>
    <i name="EFIELD">      0.00000000</i>
   </separator>
  </separator>
  <separator name="grids" >
   <i type="int" name="NGX">    42</i>
   <i type="int" name="NGY">    48</i>
   <i type="int" name="NGZ">   160</i>
   <i type="int" name="NGXF">    84</i>
   <i type="int" name="NGYF">    96</i>
   <i type="int" name="NGZF">   320</i>
   <i type="logical" name="ADDGRID"> F  </i>
  </separator>
  <separator name="ionic" >
   <i type="int" name="NSW">     3</i>
   <i type="int" name="IBRION">     0</i>
   <i type="int" name="MDALGO">     0</i>
   <i type="int" name="ISIF">     0</i>
   <i name="PSTRESS">      0.00000000</i>
   <i name="EDIFFG">      0.00000000</i>
   <i type="int" name="NFREE">     0</i>
   <i name="POTIM">      1.00000000</i>
   <i name="SMASS">      0.07314819</i>
   <i name="SCALEE">      1.00000000</i>
  </separator>
  <separator name="ionic md" >
   <i name="TEBEG">    300.00000000</i>
   <i name="TEEND">    300.00000000</i>
   <i type="int" name="NBLOCK">     1</i>
   <i type="int" name="KBLOCK">     3</i>
   <i type="int" name="NPACO">   256</i>
   <i name="APACO">     16.00000000</i>
  </separator>
  <separator name="symmetry" >
   <i type="int" name="ISYM">     2</i>
   <i name="SYMPREC">      0.00001000</i>
  </separator>
  <separator name="dos" >
   <i type="int" name="LORBIT">     0</i>
   <v name="RWIGS">     -1.00000000     -1.00000000     -1.00000000</v>
   <i type="int" name="NEDOS">   301</i>
   <i name="EMIN">     10.00000000</i>
   <i name="EMAX">    -10.00000000</i>
   <i name="EFERMI">      0.00000000</i>
  </separator>
  <separator name="writing" >
   <i type="int" name="NWRITE">     2</i>
   <i type="logical" name="LWAVE"> F  </i>
   <i type="logical" name="LDOWNSAMPLE"> F  </i>
   <i type="logical" name="LCHARG"> F  </i>
   <i type="logical" name="LPARD"> F  </i>
   <i type="logical" name="LVTOT"> F  </i>
   <i type="logical" name="LVHAR"> F  </i>
   <i type="logical" name="LELF"> F  </i>
   <i type="logical" name="LOPTICS"> F  </i>
   <v name="STM">      0.00000000      0.00000000      0.00000000      0.00000000      0.00000000      0.00000000      0.00000000</v>
  </separator>
  <separator name="performance" >
   <i type="int" name="NPAR">     1</i>
   <i type="int" name="NSIM">     4</i>
   <i type="int" name="NBLK">    -1</i>
   <i type="logical" name="LPLANE"> T  </i>
   <i type="logical" name="LSCALAPACK"> T  </i>
   <i type="logical" name="LSCAAWARE"> F  </i>
   <i type="logical" name="LSCALU"> F  </i>
   <i type="logical" name="LASYNC"> F  </i>
   <i type="logical" name="LORBITALREAL"> F  </i>
  </separator>
  <separator name="miscellaneous" >
   <i type="int" name="IDIOT">     3</i>
   <i type="int" name="ISPECIAL">     0</i>
   <i type="logical" name="LMUSIC"> F  </i>
   <v name="POMASS">      1.00000000     16.00000000    195.08000000</v>
   <v name="DARWINR">      0.00000000      0.00000000      0.00000000</v>
   <v name="DARWINV">      1.00000000      1.00000000      1.00000000</v>
   <i type="logical" name="LCORR"> T  </i>
  </separator>
  <i type="logical" name="GGA_COMPAT"> T  </i>
  <i type="logical" name="LBERRY"> F  </i>
  <i type="int" name="ICORELEVEL">     0</i>
  <i type="logical" name="LDAU"> F  </i>
  <i type="int" name="I_CONSTRAINED_M">     0</i>
  <separator name="electronic exchange-correlation" >
   <i type="string" name="GGA">RP</i>
   <i type="int" name="VOSKOWN">     0</i>
   <i type="logical" name="LHFCALC"> F  </i>
   <i type="string" name="PRECFOCK"></i>
   <i type="logical" name="LSYMGRAD"> F  </i>
   <i type="logical" name="LHFONE"> F  </i>
   <i type="logical" name="LRHFCALC"> F  </i>
   <i type="logical" name="LTHOMAS"> F  </i>
   <i type="logical" name="LMODELHF"> F  </i>
   <i name="ENCUT4O">     -1.00000000</i>
   <i type="int" name="EXXOEP">     0</i>
   <i type="int" name="FOURORBIT">     0</i>
   <i name="AEXX">      0.00000000</i>
   <i name="HFALPHA">      0.00000000</i>
   <i name="MCALPHA">      0.00000000</i>
   <i name="ALDAX">      1.00000000</i>
   <i name="AGGAX">      1.00000000</i>
   <i name="ALDAC">      1.00000000</i>
   <i name="AGGAC">      1.00000000</i>
   <i type="int" name="NKREDX">     1</i>
   <i type="int" name="NKREDY">     1</i>
   <i type="int" name="NKREDZ">     1</i>
   <i type="logical" name="SHIFTRED"> F  </i>
   <i type="logical" name="ODDONLY"> F  </i>
   <i type="logical" name="EVENONLY"> F  </i>
   <i type="int" name="LMAXFOCK">     0</i>
   <i type="int" name="NMAXFOCKAE">     0</i>
   <i type="logical" name="LFOCKAEDFT"> F  </i>
   <i name="HFSCREEN">      0.00000000</i>
   <i name="HFSCREENC">      0.00000000</i>
   <i type="int" name="NBANDSGWLOW">     0</i>
  </separator>
  <separator name="vdW DFT" >
   <i type="logical" name="LUSE_VDW"> F  </i>
   <i name="Zab_VDW">     -0.84910000</i>
   <i name="PARAM1">      0.12340000</i>
   <i name="PARAM2">      1.00000000</i>
   <i name="PARAM3">      0.00000000</i>
  </separator>
  <separator name="model GW" >
   <i type="int" name="MODEL_GW">     0</i>
   <i name="MODEL_EPS0">     14.54114610</i>
   <i name="MODEL_ALPHA">      1.00000000</i>
  </separator>
  <separator name="linear response parameters" >
   <i type="logical" name="LEPSILON"> F  </i>
   <i type="logical" name="LRPA"> F  </i>
   <i type="logical" name="LNABLA"> F  </i>
   <i type="logical" name="LVEL"> F  </i>
   <i type="int" name="KINTER">     0</i>
   <i name="CSHIFT">      0.10000000</i>
   <i name="OMEGAMAX">     -1.00000000</i>
   <i name="DEG_THRESHOLD">      0.00200000</i>
   <i name="RTIME">     -0.10000000</i>
   <i name="WPLASMAI">      0.00000000</i>
   <v name="DFIELD">      0.00000000      0.00000000      0.00000000</v>
   <v name="WPLASMA">      0.00000000      0.00000000      0.00000000      0.00000000      0.00000000      0.00000000      0.00000000      0.00000000      0.00000000</v>
  </separator>
  <separator name="orbital magnetization" >
   <i type="logical" name="NUCIND"> F  </i>
   <v name="MAGPOS">      0.00000000      0.00000000      0.00000000</v>
   <i type="logical" name="LNICSALL"> T  </i>
   <i type="logical" name="ORBITALMAG"> F  </i>
   <i type="logical" name="LMAGBLOCH"> F  </i>
   <i type="logical" name="LCHIMAG"> F  </i>
   <i type="logical" name="LGAUGE"> T  </i>
   <i type="int" name="MAGATOM">     0</i>
   <v name="MAGDIPOL">      0.00000000      0.00000000      0.00000000</v>
   <v name="AVECCONST">      0.00000000      0.00000000      0.00000000</v>
  </separator>
  <separator name="response functions" >
   <i type="logical" name="LADDER"> F  </i>
   <i type="logical" name="LRPAFORCE"> F  </i>
   <i type="logical" name="LFXC"> F  </i>
   <i type="logical" name="LHARTREE"> T  </i>
   <i type="int" name="IBSE">     0</i>
   <v type="int" name="KPOINT">    -1     0     0     0</v>
   <i type="logical" name="LTCTE"> F  </i>
   <i type="logical" name="LTETE"> F  </i>
   <i type="logical" name="LTRIPLET"> F  </i>
   <i type="logical" name="LFXCEPS"> F  </i>
   <i type="logical" name="LFXHEG"> F  </i>
   <i type="int" name="NATURALO">     2</i>
   <i type="logical" name="L2ORDER"> F  </i>
   <i type="logical" name="LMP2LT"> F  </i>
   <i type="logical" name="LUSEW"> F  </i>
   <i name="ENCUTGW">     -2.00000000</i>
   <i name="ENCUTGWSOFT">     -2.00000000</i>
   <i name="ENCUTLF">     -1.00000000</i>
   <i type="int" name="LMAXMP2">    -1</i>
   <i name="SCISSOR">      0.00000000</i>
   <i type="int" name="NOMEGA">     0</i>
   <i type="int" name="NOMEGAR">     0</i>
   <i type="int" name="NBANDSGW">    -1</i>
   <i type="int" name="NBANDSO">    -1</i>
   <i type="int" name="NBANDSV">    -1</i>
   <i type="int" name="NELM">   200</i>
   <i type="int" name="NELMHF">     1</i>
   <i type="int" name="DIM">     3</i>
   <i type="int" name="ANTIRES">     0</i>
   <i name="OMEGAMAX">    -30.00000000</i>
   <i name="OMEGAMIN">    -30.00000000</i>
   <i name="OMEGATL">   -200.00000000</i>
   <i type="int" name="OMEGAGRID">   140</i>
   <i name="CSHIFT">     -0.10000000</i>
   <i type="logical" name="SELFENERGY"> F  </i>
   <i type="logical" name="LSPECTRAL"> F  </i>
   <i type="logical" name="LSPECTRALGW"> F  </i>
   <i type="logical" name="LSINGLES"> F  </i>
   <i type="logical" name="LFERMIGW"> F  </i>
   <i type="logical" name="ODDONLYGW"> F  </i>
   <i type="logical" name="EVENONLYGW"> F  </i>
   <i type="int" name="NKREDLFX">     1</i>
   <i type="int" name="NKREDLFY">     1</i>
   <i type="int" name="NKREDLFZ">     1</i>
   <i type="int" name="MAXMEM">  2800</i>
   <i type="int" name="TELESCOPE">     0</i>
   <i type="int" name="TAUPAR">     1</i>
   <i type="int" name="OMEGAPAR">    -1</i>
   <i name="LAMBDA">      1.00000000</i>
  </separator>
  <separator name="External order field" >
   <i name="OFIELD_KAPPA">      0.00000000</i>
   <v name="OFIELD_K">      0.00000000      0.00000000      0.00000000</v>
   <i name="OFIELD_Q6_NEAR">      0.00000000</i>
   <i name="OFIELD_Q6_FAR">      0.00000000</i>
   <i name="OFIELD_A">      0.00000000</i>
  </separator>
  <separator name="solvation model" >
   <i type="logical" name="LSOL"> F  </i>
  </separator>
 </parameters>
 <atominfo>
  <atoms>     108 </atoms>
  <types>       3 </types>
  <array name="atoms" >
   <dimension dim="1">ion</dimension>
   <field type="string">element</field>
   <field type="int">atomtype</field>
   <set>
    <rc><c>H </c><c>   1</c></rc>
    <rc><c>H </c><c>   1</c></rc>
    <rc><c>H </c><c>   1</c></rc>
    <rc><c>H </c><c>   1</c></rc>
    <rc><c>H </c><c>   1</c></rc>
    <rc><c>H </c><c>   1</c></rc>
    <rc><c>H </c><c>   1</c></rc>
    <rc><c>H </c><c>   1</c></rc>
    <rc><c>H </c><c>   1</c></rc>
    <rc><c>H </c><c>   1</c></rc>
    <rc><c>H </c><c>   1</c></rc>
    <rc><c>H </c><c>   1</c></rc>
    <rc><c>H </c><c>   1</c></rc>
    <rc><c>H </c><c>   1</c></rc>
    <rc><c>H </c><c>   1</c></rc>
    <rc><c>H </c><c>   1</c></rc>
    <rc><c>H </c><c>   1</c></rc>
    <rc><c>H </c><c>   1</c></rc>
    <rc><c>H </c><c>   1</c></rc>
    <rc><c>H </c><c>   1</c></rc>
    <rc><c>H </c><c>   1</c></rc>
    <rc><c>H </c><c>   1</c></rc>
    <rc><c>H </c><c>   1</c></rc>
    <rc><c>H </c><c>   1</c></rc>
    <rc><c>H </c><c>   1</c></rc>
    <rc><c>H </c><c>   1</c></rc>
    <rc><c>H </c><c>   1</c></rc>
    <rc><c>H </c><c>   1</c></rc>
    <rc><c>H </c><c>   1</c></rc>
    <rc><c>H </c><c>   1</c></rc>
    <rc><c>H </c><c>   1</c></rc>
    <rc><c>H </c><c>   1</c></rc>
    <rc><c>H </c><c>   1</c></rc>
    <rc><c>H </c><c>   1</c></rc>
    <rc><c>H </c><c>   1</c></rc>
    <rc><c>H </c><c>   1</c></rc>
    <rc><c>H </c><c>   1</c></rc>
    <rc><c>H </c><c>   1</c></rc>
    <rc><c>H </c><c>   1</c></rc>
    <rc><c>H </c><c>   1</c></rc>
    <rc><c>H </c><c>   1</c></rc>
    <rc><c>H </c><c>   1</c></rc>
    <rc><c>H </c><c>   1</c></rc>
    <rc><c>H </c><c>   1</c></rc>
    <rc><c>H </c><c>   1</c></rc>
    <rc><c>H </c><c>   1</c></rc>
    <rc><c>H </c><c>   1</c></rc>
    <rc><c>H </c><c>   1</c></rc>
    <rc><c>O </c><c>   2</c></rc>
    <rc><c>O </c><c>   2</c></rc>
    <rc><c>O </c><c>   2</c></rc>
    <rc><c>O </c><c>   2</c></rc>
    <rc><c>O </c><c>   2</c></rc>
    <rc><c>O </c><c>   2</c></rc>
    <rc><c>O </c><c>   2</c></rc>
    <rc><c>O </c><c>   2</c></rc>
    <rc><c>O </c><c>   2</c></rc>
    <rc><c>O </c><c>   2</c></rc>
    <rc><c>O </c><c>   2</c></rc>
    <rc><c>O </c><c>   2</c></rc>
    <rc><c>O </c><c>   2</c></rc>
    <rc><c>O </c><c>   2</c></rc>
    <rc><c>O </c><c>   2</c></rc>
    <rc><c>O </c><c>   2</c></rc>
    <rc><c>O </c><c>   2</c></rc>
    <rc><c>O </c><c>   2</c></rc>
    <rc><c>O </c><c>   2</c></rc>
    <rc><c>O </c><c>   2</c></rc>
    <rc><c>O </c><c>   2</c></rc>
    <rc><c>O </c><c>   2</c></rc>
    <rc><c>O </c><c>   2</c></rc>
    <rc><c>O </c><c>   2</c></rc>
    <rc><c>Pt</c><c>   3</c></rc>
    <rc><c>Pt</c><c>   3</c></rc>
    <rc><c>Pt</c><c>   3</c></rc>
    <rc><c>Pt</c><c>   3</c></rc>
    <rc><c>Pt</c><c>   3</c></rc>
    <rc><c>Pt</c><c>   3</c></rc>
    <rc><c>Pt</c><c>   3</c></rc>
    <rc><c>Pt</c><c>   3</c></rc>
    <rc><c>Pt</c><c>   3</c></rc>
    <rc><c>Pt</c><c>   3</c></rc>
    <rc><c>Pt</c><c>   3</c></rc>
    <rc><c>Pt</c><c>   3</c></rc>
    <rc><c>Pt</c><c>   3</c></rc>
    <rc><c>Pt</c><c>   3</c></rc>
    <rc><c>Pt</c><c>   3</c></rc>
    <rc><c>Pt</c><c>   3</c></rc>
    <rc><c>Pt</c><c>   3</c></rc>
    <rc><c>Pt</c><c>   3</c></rc>
    <rc><c>Pt</c><c>   3</c></rc>
    <rc><c>Pt</c><c>   3</c></rc>
    <rc><c>Pt</c><c>   3</c></rc>
    <rc><c>Pt</c><c>   3</c></rc>
    <rc><c>Pt</c><c>   3</c></rc>
    <rc><c>Pt</c><c>   3</c></rc>
    <rc><c>Pt</c><c>   3</c></rc>
    <rc><c>Pt</c><c>   3</c></rc>
    <rc><c>Pt</c><c>   3</c></rc>
    <rc><c>Pt</c><c>   3</c></rc>
    <rc><c>Pt</c><c>   3</c></rc>
    <rc><c>Pt</c><c>   3</c></rc>
    <rc><c>Pt</c><c>   3</c></rc>
    <rc><c>Pt</c><c>   3</c></rc>
    <rc><c>Pt</c><c>   3</c></rc>
    <rc><c>Pt</c><c>   3</c></rc>
    <rc><c>Pt</c><c>   3</c></rc>
    <rc><c>Pt</c><c>   3</c></rc>
   </set>
  </array>
  <array name="atomtypes" >
   <dimension dim="1">type</dimension>
   <field type="int">atomspertype</field>
   <field type="string">element</field>
   <field>mass</field>
   <field>valence</field>
   <field type="string">pseudopotential</field>
   <set>
    <rc><c>  48</c><c>H </c><c>      1.00000000</c><c>      1.00000000</c><c>  PAW_PBE H 15Jun2001                   </c></rc>
    <rc><c>  24</c><c>O </c><c>     16.00000000</c><c>      6.00000000</c><c>  PAW_PBE O 08Apr2002                   </c></rc>
    <rc><c>  36</c><c>Pt</c><c>    195.08000000</c><c>     10.00000000</c><c>  PAW_PBE Pt 04Feb2005                  </c></rc>
   </set>
  </array>
 </atominfo>
 <structure name="initialpos" >
  <crystal>
   <varray name="basis" >
    <v>       8.34588864       0.00000000       0.00000000 </v>
    <v>       0.00000000       9.63700211       0.00000000 </v>
    <v>       0.00000000       0.00000000      32.54292636 </v>
   </varray>
   <i name="volume">   2617.40629856 </i>
   <varray name="rec_basis" >
    <v>       0.11981948       0.00000000       0.00000000 </v>
    <v>       0.00000000       0.10376671       0.00000000 </v>
    <v>       0.00000000       0.00000000       0.03072864 </v>
   </varray>
  </crystal>
  <varray name="positions" >
   <v>       0.21304072       0.45473931       0.50846637 </v>
   <v>       0.21313953       0.48322638       0.46223750 </v>
   <v>       0.76800071       0.84395059       0.46389812 </v>
   <v>       0.79007906       0.68469112       0.47410776 </v>
   <v>       0.61933552       0.98255804       0.50891211 </v>
   <v>       0.60094013       0.05133927       0.46527834 </v>
   <v>       0.05664838       0.72157111       0.45643511 </v>
   <v>       0.22729339       0.81313392       0.45858715 </v>
   <v>       0.30995377       0.21739743       0.67377805 </v>
   <v>       0.39448449       0.07992921       0.67848112 </v>
   <v>       0.78763158       0.53723784       0.59189330 </v>
   <v>       0.77729185       0.69351013       0.59701401 </v>
   <v>       0.86920694       0.41458479       0.75671171 </v>
   <v>       0.75847196       0.35925057       0.72218012 </v>
   <v>       0.46249583       0.79736345       0.69600434 </v>
   <v>       0.59768818       0.91170549       0.70050119 </v>
   <v>       0.45781954       0.72681888       0.61809471 </v>
   <v>       0.23432551       0.14209239       0.56315336 </v>
   <v>       0.20113777       0.82338187       0.63484843 </v>
   <v>       0.15300227       0.93073762       0.67266949 </v>
   <v>       0.67142786       0.53306928       0.65708636 </v>
   <v>       0.55961679       0.39640487       0.66719781 </v>
   <v>       0.79583864       0.05070336       0.62617284 </v>
   <v>       0.63003694       0.10722019       0.63868816 </v>
   <v>       0.81755513       0.14457686       0.49575877 </v>
   <v>       0.97076448       0.18783654       0.46888216 </v>
   <v>       0.25950972       0.04432755       0.46650293 </v>
   <v>       0.27690745       0.98967208       0.51056637 </v>
   <v>       0.95647623       0.85344705       0.62195472 </v>
   <v>       0.97798737       0.91448103       0.58166585 </v>
   <v>       0.49219629       0.39173037       0.47655866 </v>
   <v>       0.60697833       0.28173623       0.45854343 </v>
   <v>       0.85799104       0.31473033       0.55504439 </v>
   <v>       0.85479962       0.26413980       0.60242627 </v>
   <v>       0.46042218       0.20984795       0.58486482 </v>
   <v>       0.47460863       0.27484346       0.54295919 </v>
   <v>       0.26592930       0.42601696       0.58859568 </v>
   <v>       0.09049688       0.44247483       0.58279942 </v>
   <v>       0.06417007       0.16268027       0.71145434 </v>
   <v>       0.94324955       0.13081662       0.67910248 </v>
   <v>       0.08650200       0.12460991       0.53763927 </v>
   <v>       0.32747525       0.67975753       0.58583665 </v>
   <v>       0.72577221       0.44177779       0.50478582 </v>
   <v>       0.72011999       0.56395148       0.53544921 </v>
   <v>       0.49351414       0.91173040       0.57385472 </v>
   <v>       0.67300859       0.97609502       0.57829188 </v>
   <v>       0.27805943       0.64673476       0.69434894 </v>
   <v>       0.44761443       0.57550908       0.69490640 </v>
   <v>       0.23732503       0.41305842       0.48205722 </v>
   <v>       0.82944579       0.76109403       0.45865413 </v>
   <v>       0.67677882       0.99416720       0.48256782 </v>
   <v>       0.17643603       0.71301921       0.44872599 </v>
   <v>       0.41221577       0.17200732       0.66485980 </v>
   <v>       0.71289476       0.61060449       0.60335576 </v>
   <v>       0.84129998       0.32656124       0.74132906 </v>
   <v>       0.51124913       0.88732275       0.68330687 </v>
   <v>       0.15492939       0.07277627       0.55636403 </v>
   <v>       0.12359361       0.84747316       0.65794073 </v>
   <v>       0.62031697       0.47320872       0.67858442 </v>
   <v>       0.74819780       0.12928821       0.63999565 </v>
   <v>       0.93199981       0.16886856       0.49759140 </v>
   <v>       0.29615489       0.96309924       0.48118050 </v>
   <v>       0.88804888       0.87257934       0.59780850 </v>
   <v>       0.57352959       0.32688353       0.48433762 </v>
   <v>       0.88119777       0.34760765       0.58351438 </v>
   <v>       0.41679770       0.28517072       0.56870608 </v>
   <v>       0.18984143       0.49810886       0.58136179 </v>
   <v>       0.05709588       0.12763679       0.68340728 </v>
   <v>       0.36297681       0.75704748       0.60297714 </v>
   <v>       0.77943994       0.53397673       0.51168999 </v>
   <v>       0.56025534       0.99214768       0.56725670 </v>
   <v>       0.38993735       0.65923642       0.70340099 </v>
   <v>       0.16666667       0.08333333       0.24123678 </v>
   <v>       0.50000000       0.08333333       0.24123678 </v>
   <v>       0.83333333       0.08333333       0.24123678 </v>
   <v>       0.00000000       0.33333333       0.24123678 </v>
   <v>       0.33333333       0.33333333       0.24123678 </v>
   <v>       0.66666667       0.33333333       0.24123678 </v>
   <v>       0.16666667       0.58333333       0.24123678 </v>
   <v>       0.50000000       0.58333333       0.24123678 </v>
   <v>       0.83333333       0.58333333       0.24123678 </v>
   <v>       0.00000000       0.83333333       0.24123678 </v>
   <v>       0.33333333       0.83333333       0.24123678 </v>
   <v>       0.66666667       0.83333333       0.24123678 </v>
   <v>       0.00000000       0.16666667       0.31103576 </v>
   <v>       0.33333333       0.16666667       0.31103576 </v>
   <v>       0.66666667       0.16666667       0.31103576 </v>
   <v>       0.16666667       0.41666667       0.31103576 </v>
   <v>       0.50000000       0.41666667       0.31103576 </v>
   <v>       0.83333333       0.41666667       0.31103576 </v>
   <v>       0.00000000       0.66666667       0.31103576 </v>
   <v>       0.33333333       0.66666667       0.31103576 </v>
   <v>       0.66666667       0.66666667       0.31103576 </v>
   <v>       0.16666667       0.91666667       0.31103576 </v>
   <v>       0.50000000       0.91666667       0.31103576 </v>
   <v>       0.83333333       0.91666667       0.31103576 </v>
   <v>       0.99865360       0.00751246       0.38569333 </v>
   <v>       0.34518137       0.99232034       0.38364119 </v>
   <v>       0.66998172       0.00000355       0.38190363 </v>
   <v>       0.15744833       0.24610335       0.38832232 </v>
   <v>       0.50669335       0.25482928       0.38470810 </v>
   <v>       0.83314722       0.23941238       0.38235599 </v>
   <v>       0.97350298       0.49088964       0.38689777 </v>
   <v>       0.31257618       0.48855631       0.38084694 </v>
   <v>       0.64527209       0.51491559       0.38583878 </v>
   <v>       0.15484848       0.73944978       0.38165429 </v>
   <v>       0.48295249       0.75493364       0.38333483 </v>
   <v>       0.81931142       0.75544931       0.38234597 </v>
  </varray>
  <varray name="selective"  type="logical" >
   <v type="logical" >  T  T  T </v>
   <v type="logical" >  T  T  T </v>
   <v type="logical" >  T  T  T </v>
   <v type="logical" >  T  T  T </v>
   <v type="logical" >  T  T  T </v>
   <v type="logical" >  T  T  T </v>
   <v type="logical" >  T  T  T </v>
   <v type="logical" >  T  T  T </v>
   <v type="logical" >  T  T  T </v>
   <v type="logical" >  T  T  T </v>
   <v type="logical" >  T  T  T </v>
   <v type="logical" >  T  T  T </v>
   <v type="logical" >  T  T  T </v>
   <v type="logical" >  T  T  T </v>
   <v type="logical" >  T  T  T </v>
   <v type="logical" >  T  T  T </v>
   <v type="logical" >  T  T  T </v>
   <v type="logical" >  T  T  T </v>
   <v type="logical" >  T  T  T </v>
   <v type="logical" >  T  T  T </v>
   <v type="logical" >  T  T  T </v>
   <v type="logical" >  T  T  T </v>
   <v type="logical" >  T  T  T </v>
   <v type="logical" >  T  T  T </v>
   <v type="logical" >  T  T  T </v>
   <v type="logical" >  T  T  T </v>
   <v type="logical" >  T  T  T </v>
   <v type="logical" >  T  T  T </v>
   <v type="logical" >  T  T  T </v>
   <v type="logical" >  T  T  T </v>
   <v type="logical" >  T  T  T </v>
   <v type="logical" >  T  T  T </v>
   <v type="logical" >  T  T  T </v>
   <v type="logical" >  T  T  T </v>
   <v type="logical" >  T  T  T </v>
   <v type="logical" >  T  T  T </v>
   <v type="logical" >  T  T  T </v>
   <v type="logical" >  T  T  T </v>
   <v type="logical" >  T  T  T </v>
   <v type="logical" >  T  T  T </v>
   <v type="logical" >  T  T  T </v>
   <v type="logical" >  T  T  T </v>
   <v type="logical" >  T  T  T </v>
   <v type="logical" >  T  T  T </v>
   <v type="logical" >  T  T  T </v>
   <v type="logical" >  T  T  T </v>
   <v type="logical" >  T  T  T </v>
   <v type="logical" >  T  T  T </v>
   <v type="logical" >  T  T  T </v>
   <v type="logical" >  T  T  T </v>
   <v type="logical" >  T  T  T </v>
   <v type="logical" >  T  T  T </v>
   <v type="logical" >  T  T  T </v>
   <v type="logical" >  T  T  T </v>
   <v type="logical" >  T  T  T </v>
   <v type="logical" >  T  T  T </v>
   <v type="logical" >  T  T  T </v>
   <v type="logical" >  T  T  T </v>
   <v type="logical" >  T  T  T </v>
   <v type="logical" >  T  T  T </v>
   <v type="logical" >  T  T  T </v>
   <v type="logical" >  T  T  T </v>
   <v type="logical" >  T  T  T </v>
   <v type="logical" >  T  T  T </v>
   <v type="logical" >  T  T  T </v>
   <v type="logical" >  T  T  T </v>
   <v type="logical" >  T  T  T </v>
   <v type="logical" >  T  T  T </v>
   <v type="logical" >  T  T  T </v>
   <v type="logical" >  T  T  T </v>
   <v type="logical" >  T  T  T </v>
   <v type="logical" >  T  T  T </v>
   <v type="logical" >  F  F  F </v>
   <v type="logical" >  F  F  F </v>
   <v type="logical" >  F  F  F </v>
   <v type="logical" >  F  F  F </v>
   <v type="logical" >  F  F  F </v>
   <v type="logical" >  F  F  F </v>
   <v type="logical" >  F  F  F </v>
   <v type="logical" >  F  F  F </v>
   <v type="logical" >  F  F  F </v>
   <v type="logical" >  F  F  F </v>
   <v type="logical" >  F  F  F </v>
   <v type="logical" >  F  F  F </v>
   <v type="logical" >  F  F  F </v>
   <v type="logical" >  F  F  F </v>
   <v type="logical" >  F  F  F </v>
   <v type="logical" >  F  F  F </v>
   <v type="logical" >  F  F  F </v>
   <v type="logical" >  F  F  F </v>
   <v type="logical" >  F  F  F </v>
   <v type="logical" >  F  F  F </v>
   <v type="logical" >  F  F  F </v>
   <v type="logical" >  F  F  F </v>
   <v type="logical" >  F  F  F </v>
   <v type="logical" >  F  F  F </v>
   <v type="logical" >  T  T  T </v>
   <v type="logical" >  T  T  T </v>
   <v type="logical" >  T  T  T </v>
   <v type="logical" >  T  T  T </v>
   <v type="logical" >  T  T  T </v>
   <v type="logical" >  T  T  T </v>
   <v type="logical" >  T  T  T </v>
   <v type="logical" >  T  T  T </v>
   <v type="logical" >  T  T  T </v>
   <v type="logical" >  T  T  T </v>
   <v type="logical" >  T  T  T </v>
   <v type="logical" >  T  T  T </v>
  </varray>
  <varray name="velocities" >
   <v>       0.00223879      -0.00069136       0.00037688 </v>
   <v>       0.00067738       0.00023988      -0.00012482 </v>
   <v>      -0.00049278      -0.00161170      -0.00059449 </v>
   <v>       0.00201139       0.00149059       0.00071924 </v>
   <v>      -0.00141332       0.00037562      -0.00050461 </v>
   <v>      -0.00111209       0.00100122      -0.00010772 </v>
   <v>      -0.00287133      -0.00095136      -0.00037678 </v>
   <v>       0.00250458       0.00239403       0.00072757 </v>
   <v>      -0.00171911      -0.00077336      -0.00032045 </v>
   <v>      -0.00207609      -0.00127596      -0.00060179 </v>
   <v>      -0.00252654       0.00044126      -0.00017069 </v>
   <v>       0.00496430       0.00240430      -0.00072148 </v>
   <v>       0.00450471      -0.00091657      -0.00026228 </v>
   <v>       0.00285149       0.00139450      -0.00000028 </v>
   <v>       0.00183307      -0.00144795      -0.00039286 </v>
   <v>      -0.00084696       0.00274845      -0.00019981 </v>
   <v>      -0.00240934       0.00110895       0.00028052 </v>
   <v>      -0.00217302       0.00127629       0.00019390 </v>
   <v>       0.00129576       0.00061222      -0.00093206 </v>
   <v>      -0.00030549      -0.00178260      -0.00002600 </v>
   <v>      -0.00091825       0.00218491      -0.00041716 </v>
   <v>      -0.00044272       0.00117762       0.00075552 </v>
   <v>      -0.00191496       0.00043592      -0.00053521 </v>
   <v>      -0.00321871       0.00043338      -0.00085812 </v>
   <v>      -0.00325491      -0.00090161      -0.00057439 </v>
   <v>       0.00129019      -0.00035934      -0.00011434 </v>
   <v>      -0.00222784      -0.00009877       0.00022088 </v>
   <v>      -0.00320393      -0.00081310       0.00022328 </v>
   <v>       0.00103338      -0.00041901      -0.00036039 </v>
   <v>       0.00219804      -0.00106613      -0.00058482 </v>
   <v>       0.00138950      -0.00065496       0.00075974 </v>
   <v>      -0.00049967      -0.00218511       0.00010157 </v>
   <v>       0.00266847       0.00054332       0.00003551 </v>
   <v>      -0.00265708      -0.00302083      -0.00075468 </v>
   <v>      -0.00366952      -0.00118141      -0.00051278 </v>
   <v>      -0.00089273      -0.00069631       0.00058906 </v>
   <v>       0.00141836       0.00039138       0.00099099 </v>
   <v>       0.00094002       0.00035233      -0.00035528 </v>
   <v>      -0.00215307       0.00266051       0.00028903 </v>
   <v>       0.00339374       0.00180239       0.00023872 </v>
   <v>      -0.00309245      -0.00093312      -0.00064202 </v>
   <v>      -0.00068238      -0.00271349       0.00030101 </v>
   <v>       0.00139493      -0.00279565       0.00080097 </v>
   <v>       0.00171414      -0.00119898       0.00005159 </v>
   <v>       0.00118531       0.00166170      -0.00001937 </v>
   <v>       0.00340919      -0.00040691      -0.00017240 </v>
   <v>       0.00130879      -0.00027125       0.00022008 </v>
   <v>      -0.00410553      -0.00053654      -0.00009294 </v>
   <v>      -0.00107259      -0.00004720      -0.00010108 </v>
   <v>      -0.00027879      -0.00008826       0.00000228 </v>
   <v>      -0.00032081      -0.00026390       0.00014938 </v>
   <v>       0.00030075       0.00020601       0.00000011 </v>
   <v>      -0.00061553      -0.00001994      -0.00010472 </v>
   <v>      -0.00030112      -0.00034463      -0.00009837 </v>
   <v>       0.00009946      -0.00007947      -0.00012553 </v>
   <v>      -0.00066453       0.00043897       0.00007817 </v>
   <v>      -0.00023939       0.00006426      -0.00004699 </v>
   <v>      -0.00027187       0.00037439      -0.00017042 </v>
   <v>       0.00103505      -0.00048415       0.00004958 </v>
   <v>       0.00015076      -0.00051571       0.00011779 </v>
   <v>       0.00012007      -0.00031091       0.00001510 </v>
   <v>      -0.00001881      -0.00027152       0.00000893 </v>
   <v>       0.00160920      -0.00123455       0.00018390 </v>
   <v>       0.00027925       0.00039775      -0.00008574 </v>
   <v>       0.00022219       0.00004740      -0.00000920 </v>
   <v>       0.00037672      -0.00015127       0.00011206 </v>
   <v>      -0.00021430       0.00053109       0.00012926 </v>
   <v>      -0.00030330      -0.00036402       0.00005679 </v>
   <v>      -0.00035358      -0.00022905      -0.00014985 </v>
   <v>      -0.00056445      -0.00029121       0.00013995 </v>
   <v>       0.00054443       0.00000508      -0.00003321 </v>
   <v>       0.00061713       0.00056033      -0.00005653 </v>
   <v>       0.00000000       0.00000000       0.00000000 </v>
   <v>       0.00000000       0.00000000       0.00000000 </v>
   <v>       0.00000000       0.00000000       0.00000000 </v>
   <v>       0.00000000       0.00000000       0.00000000 </v>
   <v>       0.00000000       0.00000000       0.00000000 </v>
   <v>       0.00000000       0.00000000       0.00000000 </v>
   <v>       0.00000000       0.00000000       0.00000000 </v>
   <v>       0.00000000       0.00000000       0.00000000 </v>
   <v>       0.00000000       0.00000000       0.00000000 </v>
   <v>       0.00000000       0.00000000       0.00000000 </v>
   <v>       0.00000000       0.00000000       0.00000000 </v>
   <v>       0.00000000       0.00000000       0.00000000 </v>
   <v>       0.00000000       0.00000000       0.00000000 </v>
   <v>       0.00000000       0.00000000       0.00000000 </v>
   <v>       0.00000000       0.00000000       0.00000000 </v>
   <v>       0.00000000       0.00000000       0.00000000 </v>
   <v>       0.00000000       0.00000000       0.00000000 </v>
   <v>       0.00000000       0.00000000       0.00000000 </v>
   <v>       0.00000000       0.00000000       0.00000000 </v>
   <v>       0.00000000       0.00000000       0.00000000 </v>
   <v>       0.00000000       0.00000000       0.00000000 </v>
   <v>       0.00000000       0.00000000       0.00000000 </v>
   <v>       0.00000000       0.00000000       0.00000000 </v>
   <v>       0.00000000       0.00000000       0.00000000 </v>
   <v>      -0.00015794      -0.00001808       0.00002528 </v>
   <v>       0.00009292       0.00015370      -0.00004161 </v>
   <v>      -0.00027831      -0.00003081       0.00004850 </v>
   <v>       0.00012675      -0.00009133      -0.00002011 </v>
   <v>      -0.00008118       0.00009251      -0.00002688 </v>
   <v>      -0.00004517       0.00014397      -0.00004277 </v>
   <v>       0.00030612      -0.00005800      -0.00002897 </v>
   <v>      -0.00001257      -0.00018174      -0.00000199 </v>
   <v>      -0.00024611       0.00013443      -0.00000178 </v>
   <v>       0.00015924       0.00011944      -0.00000572 </v>
   <v>      -0.00012135       0.00013461      -0.00000029 </v>
   <v>      -0.00017427       0.00020178       0.00003983 </v>
  </varray>
  <nose>
   <v>       0.07314819       0.00000000     300.00000000     300.00000000 </v>
  </nose>
 </structure>
 <calculation>
  <scstep>
   <time name="dav">   18.20   18.20</time>
   <time name="total">   18.30   18.31</time>
   <dipole>
    <v name="dipole">      0.00000000       0.00000000      -0.00007316 </v>
    <i name="Tr[quadrupol]">  -7477.69487156 </i>
    <i name="Echarged">      0.00000000 </i>
    <i name="Edipol_quadrupol">      0.00000000 </i>
    <i name="Eion">      0.00000000 </i>
   </dipole>
   <energy>
    <i name="alphaZ">    863.57843226 </i>
    <i name="ewald"> 223656.49064828 </i>
    <i name="hartreedc">-260409.41279031 </i>
    <i name="XCdc">    881.11084400 </i>
    <i name="pawpsdc">  33505.36643195 </i>
    <i name="pawaedc"> -32489.60540758 </i>
    <i name="eentropy">     -0.13437969 </i>
    <i name="bandstr">    544.35472548 </i>
    <i name="atom">  37193.95212048 </i>
    <i name="e_fr_energy">   3745.70062488 </i>
    <i name="e_wo_entrp">   3745.83500457 </i>
    <i name="e_0_energy">   3745.76781472 </i>
   </energy>
  </scstep>
  <scstep>
   <time name="dav">   20.68   20.68</time>
   <time name="total">   20.68   20.69</time>
   <dipole>
    <v name="dipole">      0.00000000       0.00000000      -0.00007316 </v>
    <i name="Tr[quadrupol]">  -7477.69487156 </i>
    <i name="Echarged">      0.00000000 </i>
    <i name="Edipol_quadrupol">      0.00000000 </i>
    <i name="Eion">      0.00000000 </i>
   </dipole>
   <energy>
    <i name="e_fr_energy">   -141.27365356 </i>
    <i name="e_wo_entrp">   -141.07972826 </i>
    <i name="e_0_energy">   -141.17669091 </i>
   </energy>
  </scstep>
  <scstep>
   <time name="dav">   17.99   17.99</time>
   <time name="total">   18.00   18.00</time>
   <dipole>
    <v name="dipole">      0.00000000       0.00000000      -0.00007316 </v>
    <i name="Tr[quadrupol]">  -7477.69487156 </i>
    <i name="Echarged">      0.00000000 </i>
    <i name="Edipol_quadrupol">      0.00000000 </i>
    <i name="Eion">      0.00000000 </i>
   </dipole>
   <energy>
    <i name="e_fr_energy">   -559.97743213 </i>
    <i name="e_wo_entrp">   -559.70965164 </i>
    <i name="e_0_energy">   -559.84354188 </i>
   </energy>
  </scstep>
  <scstep>
   <time name="dav">   19.13   19.13</time>
   <time name="total">   19.13   19.14</time>
   <dipole>
    <v name="dipole">      0.00000000       0.00000000      -0.00007316 </v>
    <i name="Tr[quadrupol]">  -7477.69487156 </i>
    <i name="Echarged">      0.00000000 </i>
    <i name="Edipol_quadrupol">      0.00000000 </i>
    <i name="Eion">      0.00000000 </i>
   </dipole>
   <energy>
    <i name="e_fr_energy">   -574.12497829 </i>
    <i name="e_wo_entrp">   -573.85490626 </i>
    <i name="e_0_energy">   -573.98994227 </i>
   </energy>
  </scstep>
  <scstep>
   <time name="dav">   21.87   21.87</time>
   <time name="total">   22.72   22.72</time>
   <dipole>
    <v name="dipole">      0.00000000       0.00000000      -0.00007316 </v>
    <i name="Tr[quadrupol]">  -7477.69487156 </i>
    <i name="Echarged">      0.00000000 </i>
    <i name="Edipol_quadrupol">      0.00000000 </i>
    <i name="Eion">      0.00000000 </i>
   </dipole>
   <energy>
    <i name="e_fr_energy">   -574.51909216 </i>
    <i name="e_wo_entrp">   -574.24891078 </i>
    <i name="e_0_energy">   -574.38400147 </i>
   </energy>
  </scstep>
  <scstep>
   <time name="diag">    2.91    2.91</time>
   <time name="diis">    9.02    9.02</time>
   <time name="orth">    0.79    0.79</time>
   <time name="total">   13.66   13.67</time>
   <dipole>
    <v name="dipole">      0.00000000       0.00000000       0.36137025 </v>
    <i name="Tr[quadrupol]">  -7478.77675579 </i>
    <i name="Echarged">      0.00000000 </i>
    <i name="Edipol_quadrupol">      0.00000000 </i>
    <i name="Eion">      0.00000000 </i>
   </dipole>
   <energy>
    <i name="e_fr_energy">   -532.99782228 </i>
    <i name="e_wo_entrp">   -532.58129351 </i>
    <i name="e_0_energy">   -532.78955790 </i>
   </energy>
  </scstep>
  <scstep>
   <time name="diag">    2.94    2.94</time>
   <time name="diis">    7.88    7.88</time>
   <time name="orth">    0.72    0.72</time>
   <time name="total">   12.23   12.24</time>
   <dipole>
    <v name="dipole">      0.00000000       0.00000000      -2.55637871 </v>
    <i name="Tr[quadrupol]">  -7456.67307872 </i>
    <i name="Echarged">      0.00000000 </i>
    <i name="Edipol_quadrupol">      0.00000000 </i>
    <i name="Eion">      0.00000000 </i>
   </dipole>
   <energy>
    <i name="e_fr_energy">   -602.90756091 </i>
    <i name="e_wo_entrp">   -602.67723236 </i>
    <i name="e_0_energy">   -602.79239664 </i>
   </energy>
  </scstep>
  <scstep>
   <time name="diag">    2.31    2.31</time>
   <time name="diis">    8.04    8.04</time>
   <time name="orth">    0.72    0.72</time>
   <time name="total">   11.90   11.90</time>
   <dipole>
    <v name="dipole">      0.00000000       0.00000000       2.51425776 </v>
    <i name="Tr[quadrupol]">  -7493.83797974 </i>
    <i name="Echarged">      0.00000000 </i>
    <i name="Edipol_quadrupol">      0.00000000 </i>
    <i name="Eion">      0.00000000 </i>
   </dipole>
   <energy>
    <i name="e_fr_energy">   -576.03378581 </i>
    <i name="e_wo_entrp">   -575.80626695 </i>
    <i name="e_0_energy">   -575.92002638 </i>
   </energy>
  </scstep>
  <scstep>
   <time name="diag">    2.49    2.49</time>
   <time name="diis">    8.05    8.05</time>
   <time name="orth">    0.72    0.72</time>
   <time name="total">   12.10   12.11</time>
   <dipole>
    <v name="dipole">      0.00000000       0.00000000      -0.82823379 </v>
    <i name="Tr[quadrupol]">  -7486.95717901 </i>
    <i name="Echarged">      0.00000000 </i>
    <i name="Edipol_quadrupol">      0.00000000 </i>
    <i name="Eion">      0.00000000 </i>
   </dipole>
   <energy>
    <i name="e_fr_energy">   -536.71986920 </i>
    <i name="e_wo_entrp">   -536.38807204 </i>
    <i name="e_0_energy">   -536.55397062 </i>
   </energy>
  </scstep>
  <scstep>
   <time name="diag">    2.62    2.62</time>
   <time name="diis">    7.06    7.06</time>
   <time name="orth">    0.70    0.70</time>
   <time name="total">   11.04   11.04</time>
   <dipole>
    <v name="dipole">      0.00000000       0.00000000       0.98417833 </v>
    <i name="Tr[quadrupol]">  -7476.86982024 </i>
    <i name="Echarged">      0.00000000 </i>
    <i name="Edipol_quadrupol">      0.00000000 </i>
    <i name="Eion">      0.00000000 </i>
   </dipole>
   <energy>
    <i name="e_fr_energy">   -542.53799881 </i>
    <i name="e_wo_entrp">   -542.21703475 </i>
    <i name="e_0_energy">   -542.37751678 </i>
   </energy>
  </scstep>
  <scstep>
   <time name="diag">    2.31    2.31</time>
   <time name="diis">    7.55    7.55</time>
   <time name="orth">    0.76    0.76</time>
   <time name="total">   11.50   11.50</time>
   <dipole>
    <v name="dipole">      0.00000000       0.00000000      -0.62787350 </v>
    <i name="Tr[quadrupol]">  -7484.58946750 </i>
    <i name="Echarged">      0.00000000 </i>
    <i name="Edipol_quadrupol">      0.00000000 </i>
    <i name="Eion">      0.00000000 </i>
   </dipole>
   <energy>
    <i name="e_fr_energy">   -537.46843622 </i>
    <i name="e_wo_entrp">   -537.09259750 </i>
    <i name="e_0_energy">   -537.28051686 </i>
   </energy>
  </scstep>
  <scstep>
   <time name="diag">    2.69    2.70</time>
   <time name="diis">    7.67    7.67</time>
   <time name="orth">    0.75    0.75</time>
   <time name="total">   11.97   11.97</time>
   <dipole>
    <v name="dipole">      0.00000000       0.00000000      -0.63298725 </v>
    <i name="Tr[quadrupol]">  -7483.82413927 </i>
    <i name="Echarged">      0.00000000 </i>
    <i name="Edipol_quadrupol">      0.00000000 </i>
    <i name="Eion">      0.00000000 </i>
   </dipole>
   <energy>
    <i name="e_fr_energy">   -530.59009755 </i>
    <i name="e_wo_entrp">   -530.12836519 </i>
    <i name="e_0_energy">   -530.35923137 </i>
   </energy>
  </scstep>
  <scstep>
   <time name="diag">    2.47    2.47</time>
   <time name="diis">    7.64    7.64</time>
   <time name="orth">    0.75    0.75</time>
   <time name="total">   11.54   11.54</time>
   <dipole>
    <v name="dipole">      0.00000000       0.00000000      -0.73023763 </v>
    <i name="Tr[quadrupol]">  -7486.00329242 </i>
    <i name="Echarged">      0.00000000 </i>
    <i name="Edipol_quadrupol">      0.00000000 </i>
    <i name="Eion">      0.00000000 </i>
   </dipole>
   <energy>
    <i name="e_fr_energy">   -528.77688283 </i>
    <i name="e_wo_entrp">   -528.40310579 </i>
    <i name="e_0_energy">   -528.58999431 </i>
   </energy>
  </scstep>
  <scstep>
   <time name="diag">    2.56    2.56</time>
   <time name="diis">    7.58    7.58</time>
   <time name="orth">    0.75    0.75</time>
   <time name="total">   11.74   11.75</time>
   <dipole>
    <v name="dipole">      0.00000000       0.00000000      -0.86312106 </v>
    <i name="Tr[quadrupol]">  -7485.15258817 </i>
    <i name="Echarged">      0.00000000 </i>
    <i name="Edipol_quadrupol">      0.00000000 </i>
    <i name="Eion">      0.00000000 </i>
   </dipole>
   <energy>
    <i name="e_fr_energy">   -528.36509413 </i>
    <i name="e_wo_entrp">   -527.99226403 </i>
    <i name="e_0_energy">   -528.17867908 </i>
   </energy>
  </scstep>
  <scstep>
   <time name="diag">    2.59    2.59</time>
   <time name="diis">    7.93    7.93</time>
   <time name="orth">    0.68    0.68</time>
   <time name="total">   12.09   12.09</time>
   <dipole>
    <v name="dipole">      0.00000000       0.00000000      -0.89011661 </v>
    <i name="Tr[quadrupol]">  -7485.40382558 </i>
    <i name="Echarged">      0.00000000 </i>
    <i name="Edipol_quadrupol">      0.00000000 </i>
    <i name="Eion">      0.00000000 </i>
   </dipole>
   <energy>
    <i name="e_fr_energy">   -528.26274562 </i>
    <i name="e_wo_entrp">   -527.88963792 </i>
    <i name="e_0_energy">   -528.07619177 </i>
   </energy>
  </scstep>
  <scstep>
   <time name="diag">    2.71    2.71</time>
   <time name="diis">    9.12    9.12</time>
   <time name="orth">    0.77    0.77</time>
   <time name="total">   13.53   13.53</time>
   <dipole>
    <v name="dipole">      0.00000000       0.00000000      -0.87527145 </v>
    <i name="Tr[quadrupol]">  -7485.43845875 </i>
    <i name="Echarged">      0.00000000 </i>
    <i name="Edipol_quadrupol">      0.00000000 </i>
    <i name="Eion">      0.00000000 </i>
   </dipole>
   <energy>
    <i name="e_fr_energy">   -528.23735206 </i>
    <i name="e_wo_entrp">   -527.86217551 </i>
    <i name="e_0_energy">   -528.04976379 </i>
   </energy>
  </scstep>
  <scstep>
   <time name="diag">    2.89    2.89</time>
   <time name="diis">    8.78    8.79</time>
   <time name="orth">    0.74    0.74</time>
   <time name="total">   13.15   13.15</time>
   <dipole>
    <v name="dipole">      0.00000000       0.00000000      -0.90087621 </v>
    <i name="Tr[quadrupol]">  -7485.34953831 </i>
    <i name="Echarged">      0.00000000 </i>
    <i name="Edipol_quadrupol">      0.00000000 </i>
    <i name="Eion">      0.00000000 </i>
   </dipole>
   <energy>
    <i name="e_fr_energy">   -528.17821355 </i>
    <i name="e_wo_entrp">   -527.79228231 </i>
    <i name="e_0_energy">   -527.98524793 </i>
   </energy>
  </scstep>
  <scstep>
   <time name="diag">    2.32    2.32</time>
   <time name="diis">    7.15    7.15</time>
   <time name="orth">    0.78    0.78</time>
   <time name="total">   11.08   11.08</time>
   <dipole>
    <v name="dipole">      0.00000000       0.00000000      -0.95382078 </v>
    <i name="Tr[quadrupol]">  -7485.41641736 </i>
    <i name="Echarged">      0.00000000 </i>
    <i name="Edipol_quadrupol">      0.00000000 </i>
    <i name="Eion">      0.00000000 </i>
   </dipole>
   <energy>
    <i name="e_fr_energy">   -528.12097333 </i>
    <i name="e_wo_entrp">   -527.72399866 </i>
    <i name="e_0_energy">   -527.92248599 </i>
   </energy>
  </scstep>
  <scstep>
   <time name="diag">    2.31    2.31</time>
   <time name="diis">    7.32    7.32</time>
   <time name="orth">    0.74    0.74</time>
   <time name="total">   11.07   11.07</time>
   <dipole>
    <v name="dipole">      0.00000000       0.00000000      -0.95665322 </v>
    <i name="Tr[quadrupol]">  -7485.41490309 </i>
    <i name="Echarged">      0.00000000 </i>
    <i name="Edipol_quadrupol">      0.00000000 </i>
    <i name="Eion">      0.00000000 </i>
   </dipole>
   <energy>
    <i name="e_fr_energy">   -528.07800836 </i>
    <i name="e_wo_entrp">   -527.67957797 </i>
    <i name="e_0_energy">   -527.87879316 </i>
   </energy>
  </scstep>
  <scstep>
   <time name="diag">    2.34    2.35</time>
   <time name="diis">    8.27    8.27</time>
   <time name="orth">    0.74    0.74</time>
   <time name="total">   12.18   12.19</time>
   <dipole>
    <v name="dipole">      0.00000000       0.00000000      -0.94501192 </v>
    <i name="Tr[quadrupol]">  -7485.39476348 </i>
    <i name="Echarged">      0.00000000 </i>
    <i name="Edipol_quadrupol">      0.00000000 </i>
    <i name="Eion">      0.00000000 </i>
   </dipole>
   <energy>
    <i name="e_fr_energy">   -528.06099750 </i>
    <i name="e_wo_entrp">   -527.66353478 </i>
    <i name="e_0_energy">   -527.86226614 </i>
   </energy>
  </scstep>
  <scstep>
   <time name="diag">    2.65    2.65</time>
   <time name="diis">    7.81    7.81</time>
   <time name="orth">    0.73    0.73</time>
   <time name="total">   11.84   11.84</time>
   <dipole>
    <v name="dipole">      0.00000000       0.00000000      -0.92685500 </v>
    <i name="Tr[quadrupol]">  -7485.38929391 </i>
    <i name="Echarged">      0.00000000 </i>
    <i name="Edipol_quadrupol">      0.00000000 </i>
    <i name="Eion">      0.00000000 </i>
   </dipole>
   <energy>
    <i name="e_fr_energy">   -528.05368268 </i>
    <i name="e_wo_entrp">   -527.65822632 </i>
    <i name="e_0_energy">   -527.85595450 </i>
   </energy>
  </scstep>
  <scstep>
   <time name="diag">    2.62    2.62</time>
   <time name="diis">    7.60    7.60</time>
   <time name="orth">    0.73    0.73</time>
   <time name="total">   11.73   11.73</time>
   <dipole>
    <v name="dipole">      0.00000000       0.00000000      -0.88692288 </v>
    <i name="Tr[quadrupol]">  -7485.27499633 </i>
    <i name="Echarged">      0.00000000 </i>
    <i name="Edipol_quadrupol">      0.00000000 </i>
    <i name="Eion">      0.00000000 </i>
   </dipole>
   <energy>
    <i name="e_fr_energy">   -528.03814040 </i>
    <i name="e_wo_entrp">   -527.64368711 </i>
    <i name="e_0_energy">   -527.84091375 </i>
   </energy>
  </scstep>
  <scstep>
   <time name="diag">    2.59    2.59</time>
   <time name="diis">    7.47    7.47</time>
   <time name="orth">    0.76    0.76</time>
   <time name="total">   11.49   11.49</time>
   <dipole>
    <v name="dipole">      0.00000000       0.00000000      -0.86330481 </v>
    <i name="Tr[quadrupol]">  -7485.13073176 </i>
    <i name="Echarged">      0.00000000 </i>
    <i name="Edipol_quadrupol">      0.00000000 </i>
    <i name="Eion">      0.00000000 </i>
   </dipole>
   <energy>
    <i name="e_fr_energy">   -528.02773604 </i>
    <i name="e_wo_entrp">   -527.63369129 </i>
    <i name="e_0_energy">   -527.83071367 </i>
   </energy>
  </scstep>
  <scstep>
   <time name="diag">    2.35    2.35</time>
   <time name="diis">    7.77    7.77</time>
   <time name="orth">    0.76    0.76</time>
   <time name="total">   11.74   11.75</time>
   <dipole>
    <v name="dipole">      0.00000000       0.00000000      -0.85216404 </v>
    <i name="Tr[quadrupol]">  -7485.10464150 </i>
    <i name="Echarged">      0.00000000 </i>
    <i name="Edipol_quadrupol">      0.00000000 </i>
    <i name="Eion">      0.00000000 </i>
   </dipole>
   <energy>
    <i name="e_fr_energy">   -528.02429002 </i>
    <i name="e_wo_entrp">   -527.62928379 </i>
    <i name="e_0_energy">   -527.82678690 </i>
   </energy>
  </scstep>
  <scstep>
   <time name="diag">    2.66    2.66</time>
   <time name="diis">    7.91    7.91</time>
   <time name="orth">    0.75    0.75</time>
   <time name="total">   12.00   12.00</time>
   <dipole>
    <v name="dipole">      0.00000000       0.00000000      -0.83065209 </v>
    <i name="Tr[quadrupol]">  -7485.04109363 </i>
    <i name="Echarged">      0.00000000 </i>
    <i name="Edipol_quadrupol">      0.00000000 </i>
    <i name="Eion">      0.00000000 </i>
   </dipole>
   <energy>
    <i name="e_fr_energy">   -528.01921410 </i>
    <i name="e_wo_entrp">   -527.62333671 </i>
    <i name="e_0_energy">   -527.82127540 </i>
   </energy>
  </scstep>
  <scstep>
   <time name="diag">    2.37    2.37</time>
   <time name="diis">    7.25    7.25</time>
   <time name="orth">    0.75    0.75</time>
   <time name="total">   11.22   11.22</time>
   <dipole>
    <v name="dipole">      0.00000000       0.00000000      -0.79964025 </v>
    <i name="Tr[quadrupol]">  -7484.97426657 </i>
    <i name="Echarged">      0.00000000 </i>
    <i name="Edipol_quadrupol">      0.00000000 </i>
    <i name="Eion">      0.00000000 </i>
   </dipole>
   <energy>
    <i name="e_fr_energy">   -528.01398378 </i>
    <i name="e_wo_entrp">   -527.61773171 </i>
    <i name="e_0_energy">   -527.81585774 </i>
   </energy>
  </scstep>
  <scstep>
   <time name="diag">    2.46    2.46</time>
   <time name="diis">    7.00    7.00</time>
   <time name="orth">    0.71    0.71</time>
   <time name="total">   11.02   11.02</time>
   <dipole>
    <v name="dipole">      0.00000000       0.00000000      -0.75841599 </v>
    <i name="Tr[quadrupol]">  -7484.88672723 </i>
    <i name="Echarged">      0.00000000 </i>
    <i name="Edipol_quadrupol">      0.00000000 </i>
    <i name="Eion">      0.00000000 </i>
   </dipole>
   <energy>
    <i name="e_fr_energy">   -528.00819527 </i>
    <i name="e_wo_entrp">   -527.61249073 </i>
    <i name="e_0_energy">   -527.81034300 </i>
   </energy>
  </scstep>
  <scstep>
   <time name="diag">    2.76    2.76</time>
   <time name="diis">    7.30    7.30</time>
   <time name="orth">    0.78    0.78</time>
   <time name="total">   11.58   11.59</time>
   <dipole>
    <v name="dipole">      0.00000000       0.00000000      -0.74313115 </v>
    <i name="Tr[quadrupol]">  -7484.83469097 </i>
    <i name="Echarged">      0.00000000 </i>
    <i name="Edipol_quadrupol">      0.00000000 </i>
    <i name="Eion">      0.00000000 </i>
   </dipole>
   <energy>
    <i name="e_fr_energy">   -528.00612196 </i>
    <i name="e_wo_entrp">   -527.61013551 </i>
    <i name="e_0_energy">   -527.80812874 </i>
   </energy>
  </scstep>
  <scstep>
   <time name="diag">    2.33    2.33</time>
   <time name="diis">    7.29    7.29</time>
   <time name="orth">    0.75    0.75</time>
   <time name="total">   11.04   11.04</time>
   <dipole>
    <v name="dipole">      0.00000000       0.00000000      -0.71992241 </v>
    <i name="Tr[quadrupol]">  -7484.76886634 </i>
    <i name="Echarged">      0.00000000 </i>
    <i name="Edipol_quadrupol">      0.00000000 </i>
    <i name="Eion">      0.00000000 </i>
   </dipole>
   <energy>
    <i name="e_fr_energy">   -528.00340242 </i>
    <i name="e_wo_entrp">   -527.60649717 </i>
    <i name="e_0_energy">   -527.80494979 </i>
   </energy>
  </scstep>
  <scstep>
   <time name="diag">    2.33    2.33</time>
   <time name="diis">    7.81    7.81</time>
   <time name="orth">    0.74    0.74</time>
   <time name="total">   11.76   11.76</time>
   <dipole>
    <v name="dipole">      0.00000000       0.00000000      -0.69582611 </v>
    <i name="Tr[quadrupol]">  -7484.73526540 </i>
    <i name="Echarged">      0.00000000 </i>
    <i name="Edipol_quadrupol">      0.00000000 </i>
    <i name="Eion">      0.00000000 </i>
   </dipole>
   <energy>
    <i name="e_fr_energy">   -528.00105530 </i>
    <i name="e_wo_entrp">   -527.60407058 </i>
    <i name="e_0_energy">   -527.80256294 </i>
   </energy>
  </scstep>
  <scstep>
   <time name="diag">    2.35    2.35</time>
   <time name="diis">    7.06    7.06</time>
   <time name="orth">    0.76    0.76</time>
   <time name="total">   11.08   11.08</time>
   <dipole>
    <v name="dipole">      0.00000000       0.00000000      -0.67393730 </v>
    <i name="Tr[quadrupol]">  -7484.71142946 </i>
    <i name="Echarged">      0.00000000 </i>
    <i name="Edipol_quadrupol">      0.00000000 </i>
    <i name="Eion">      0.00000000 </i>
   </dipole>
   <energy>
    <i name="e_fr_energy">   -527.99935588 </i>
    <i name="e_wo_entrp">   -527.60260748 </i>
    <i name="e_0_energy">   -527.80098168 </i>
   </energy>
  </scstep>
  <scstep>
   <time name="diag">    2.48    2.48</time>
   <time name="diis">    8.10    8.10</time>
   <time name="orth">    0.72    0.72</time>
   <time name="total">   11.98   11.98</time>
   <dipole>
    <v name="dipole">      0.00000000       0.00000000      -0.65967830 </v>
    <i name="Tr[quadrupol]">  -7484.68878627 </i>
    <i name="Echarged">      0.00000000 </i>
    <i name="Edipol_quadrupol">      0.00000000 </i>
    <i name="Eion">      0.00000000 </i>
   </dipole>
   <energy>
    <i name="e_fr_energy">   -527.99853121 </i>
    <i name="e_wo_entrp">   -527.60198162 </i>
    <i name="e_0_energy">   -527.80025641 </i>
   </energy>
  </scstep>
  <scstep>
   <time name="diag">    2.26    2.26</time>
   <time name="diis">    7.90    7.90</time>
   <time name="orth">    0.73    0.73</time>
   <time name="total">   11.75   11.75</time>
   <dipole>
    <v name="dipole">      0.00000000       0.00000000      -0.65055837 </v>
    <i name="Tr[quadrupol]">  -7484.66980963 </i>
    <i name="Echarged">      0.00000000 </i>
    <i name="Edipol_quadrupol">      0.00000000 </i>
    <i name="Eion">      0.00000000 </i>
   </dipole>
   <energy>
    <i name="e_fr_energy">   -527.99797693 </i>
    <i name="e_wo_entrp">   -527.60137264 </i>
    <i name="e_0_energy">   -527.79967478 </i>
   </energy>
  </scstep>
  <scstep>
   <time name="diag">    2.68    2.68</time>
   <time name="diis">    8.36    8.37</time>
   <time name="orth">    0.74    0.74</time>
   <time name="total">   12.64   12.64</time>
   <dipole>
    <v name="dipole">      0.00000000       0.00000000      -0.63786187 </v>
    <i name="Tr[quadrupol]">  -7484.64810605 </i>
    <i name="Echarged">      0.00000000 </i>
    <i name="Edipol_quadrupol">      0.00000000 </i>
    <i name="Eion">      0.00000000 </i>
   </dipole>
   <energy>
    <i name="e_fr_energy">   -527.99724885 </i>
    <i name="e_wo_entrp">   -527.60058318 </i>
    <i name="e_0_energy">   -527.79891602 </i>
   </energy>
  </scstep>
  <scstep>
   <time name="diag">    2.53    2.53</time>
   <time name="diis">    7.71    7.71</time>
   <time name="orth">    0.75    0.75</time>
   <time name="total">   11.66   11.67</time>
   <dipole>
    <v name="dipole">      0.00000000       0.00000000      -0.62385646 </v>
    <i name="Tr[quadrupol]">  -7484.62394791 </i>
    <i name="Echarged">      0.00000000 </i>
    <i name="Edipol_quadrupol">      0.00000000 </i>
    <i name="Eion">      0.00000000 </i>
   </dipole>
   <energy>
    <i name="e_fr_energy">   -527.99655644 </i>
    <i name="e_wo_entrp">   -527.59981067 </i>
    <i name="e_0_energy">   -527.79818355 </i>
   </energy>
  </scstep>
  <scstep>
   <time name="diag">    2.33    2.33</time>
   <time name="diis">    7.62    7.62</time>
   <time name="orth">    0.76    0.76</time>
   <time name="total">   11.61   11.62</time>
   <dipole>
    <v name="dipole">      0.00000000       0.00000000      -0.60730840 </v>
    <i name="Tr[quadrupol]">  -7484.58922597 </i>
    <i name="Echarged">      0.00000000 </i>
    <i name="Edipol_quadrupol">      0.00000000 </i>
    <i name="Eion">      0.00000000 </i>
   </dipole>
   <energy>
    <i name="e_fr_energy">   -527.99590300 </i>
    <i name="e_wo_entrp">   -527.59914361 </i>
    <i name="e_0_energy">   -527.79752331 </i>
   </energy>
  </scstep>
  <scstep>
   <time name="diag">    2.60    2.60</time>
   <time name="diis">    7.09    7.09</time>
   <time name="orth">    0.74    0.74</time>
   <time name="total">   11.12   11.12</time>
   <dipole>
    <v name="dipole">      0.00000000       0.00000000      -0.59228561 </v>
    <i name="Tr[quadrupol]">  -7484.54989576 </i>
    <i name="Echarged">      0.00000000 </i>
    <i name="Edipol_quadrupol">      0.00000000 </i>
    <i name="Eion">      0.00000000 </i>
   </dipole>
   <energy>
    <i name="e_fr_energy">   -527.99543675 </i>
    <i name="e_wo_entrp">   -527.59863375 </i>
    <i name="e_0_energy">   -527.79703525 </i>
   </energy>
  </scstep>
  <scstep>
   <time name="diag">    2.36    2.36</time>
   <time name="diis">    8.37    8.37</time>
   <time name="orth">    0.81    0.81</time>
   <time name="total">   12.47   12.48</time>
   <dipole>
    <v name="dipole">      0.00000000       0.00000000      -0.57389902 </v>
    <i name="Tr[quadrupol]">  -7484.49918640 </i>
    <i name="Echarged">      0.00000000 </i>
    <i name="Edipol_quadrupol">      0.00000000 </i>
    <i name="Eion">      0.00000000 </i>
   </dipole>
   <energy>
    <i name="e_fr_energy">   -527.99503454 </i>
    <i name="e_wo_entrp">   -527.59818079 </i>
    <i name="e_0_energy">   -527.79660767 </i>
   </energy>
  </scstep>
  <scstep>
   <time name="diag">    2.88    2.88</time>
   <time name="diis">    9.24    9.24</time>
   <time name="orth">    0.82    0.82</time>
   <time name="total">   13.90   13.90</time>
   <dipole>
    <v name="dipole">      0.00000000       0.00000000      -0.56127663 </v>
    <i name="Tr[quadrupol]">  -7484.45939992 </i>
    <i name="Echarged">      0.00000000 </i>
    <i name="Edipol_quadrupol">      0.00000000 </i>
    <i name="Eion">      0.00000000 </i>
   </dipole>
   <energy>
    <i name="e_fr_energy">   -527.99487842 </i>
    <i name="e_wo_entrp">   -527.59799155 </i>
    <i name="e_0_energy">   -527.79643499 </i>
   </energy>
  </scstep>
  <scstep>
   <time name="diag">    2.91    2.91</time>
   <time name="diis">    9.57    9.57</time>
   <time name="orth">    0.80    0.80</time>
   <time name="total">   13.39   13.40</time>
   <dipole>
    <v name="dipole">      0.00000000       0.00000000      -0.55332056 </v>
    <i name="Tr[quadrupol]">  -7484.42426105 </i>
    <i name="Echarged">      0.00000000 </i>
    <i name="Edipol_quadrupol">      0.00000000 </i>
    <i name="Eion">      0.00000000 </i>
   </dipole>
   <energy>
    <i name="alphaZ">    798.89105221 </i>
    <i name="ewald"> 223656.49064828 </i>
    <i name="hartreedc">-260790.73043033 </i>
    <i name="XCdc">    908.57956632 </i>
    <i name="pawpsdc">  45276.71357022 </i>
    <i name="pawaedc"> -44361.51077387 </i>
    <i name="eentropy">     -0.39692402 </i>
    <i name="bandstr">  -3209.98367767 </i>
    <i name="atom">  37193.95212048 </i>
    <i name="e_fr_energy">   -527.99484837 </i>
    <i name="e_wo_entrp">   -527.59792435 </i>
    <i name="e_0_energy">   -527.79638636 </i>
   </energy>
  </scstep>
  <structure>
   <crystal>
    <varray name="basis" >
     <v>       8.34588864       0.00000000       0.00000000 </v>
     <v>       0.00000000       9.63700211       0.00000000 </v>
     <v>       0.00000000       0.00000000      32.54292636 </v>
    </varray>
    <i name="volume">   2617.40629856 </i>
    <varray name="rec_basis" >
     <v>       0.11981948       0.00000000       0.00000000 </v>
     <v>       0.00000000       0.10376671       0.00000000 </v>
     <v>       0.00000000       0.00000000       0.03072864 </v>
    </varray>
   </crystal>
   <varray name="positions" >
    <v>       0.21304072       0.45473931       0.50846637 </v>
    <v>       0.21313953       0.48322638       0.46223750 </v>
    <v>       0.76800071       0.84395059       0.46389812 </v>
    <v>       0.79007906       0.68469112       0.47410776 </v>
    <v>       0.61933552       0.98255804       0.50891211 </v>
    <v>       0.60094013       0.05133927       0.46527834 </v>
    <v>       0.05664838       0.72157111       0.45643511 </v>
    <v>       0.22729339       0.81313392       0.45858715 </v>
    <v>       0.30995377       0.21739743       0.67377805 </v>
    <v>       0.39448449       0.07992921       0.67848112 </v>
    <v>       0.78763158       0.53723784       0.59189330 </v>
    <v>       0.77729185       0.69351013       0.59701401 </v>
    <v>       0.86920694       0.41458479       0.75671171 </v>
    <v>       0.75847196       0.35925057       0.72218012 </v>
    <v>       0.46249583       0.79736345       0.69600434 </v>
    <v>       0.59768818       0.91170549       0.70050119 </v>
    <v>       0.45781954       0.72681888       0.61809471 </v>
    <v>       0.23432551       0.14209239       0.56315336 </v>
    <v>       0.20113777       0.82338187       0.63484843 </v>
    <v>       0.15300227       0.93073762       0.67266949 </v>
    <v>       0.67142786       0.53306928       0.65708636 </v>
    <v>       0.55961679       0.39640487       0.66719781 </v>
[...]
       <r>     3.7270    15.7636   629.2795 </r>
       <r>     3.8281    12.1332   630.5062 </r>
       <r>     3.9292    13.1439   631.8351 </r>
       <r>     4.0303    17.2530   633.5794 </r>
       <r>     4.1314    24.0396   636.0099 </r>
       <r>     4.2325    25.4202   638.5800 </r>
       <r>     4.3337    24.8151   641.0889 </r>
       <r>     4.4348    27.0694   643.8258 </r>
       <r>     4.5359    28.7258   646.7301 </r>
       <r>     4.6370    21.9913   648.9535 </r>
       <r>     4.7381    18.6760   650.8417 </r>
       <r>     4.8392    19.0156   652.7643 </r>
       <r>     4.9403    20.4458   654.8314 </r>
       <r>     5.0414    22.6054   657.1169 </r>
       <r>     5.1425    20.6082   659.2005 </r>
       <r>     5.2436    15.8494   660.8029 </r>
       <r>     5.3447     9.7415   661.7878 </r>
       <r>     5.4458     2.0129   661.9913 </r>
       <r>     5.5469     0.0850   661.9999 </r>
       <r>     5.6480     0.0006   662.0000 </r>
       <r>     5.7491     0.0000   662.0000 </r>
       <r>     5.8502     0.0000   662.0000 </r>
       <r>     5.9513     0.0000   662.0000 </r>
       <r>     6.0524     0.0000   662.0000 </r>
       <r>     6.1535     0.0000   662.0000 </r>
       <r>     6.2546     0.0000   662.0000 </r>
       <r>     6.3557     0.0000   662.0000 </r>
       <r>     6.4568     0.0000   662.0000 </r>
       <r>     6.5579     0.0000   662.0000 </r>
       <r>     6.6591     0.0000   662.0000 </r>
      </set>
     </set>
    </array>
   </total>
  </dos>
 </calculation>
 <structure name="finalpos" >
  <crystal>
   <varray name="basis" >
    <v>       8.34588864       0.00000000       0.00000000 </v>
    <v>       0.00000000       9.63700211       0.00000000 </v>
    <v>       0.00000000       0.00000000      32.54292636 </v>
   </varray>
   <i name="volume">   2617.40629856 </i>
   <varray name="rec_basis" >
    <v>       0.11981948       0.00000000       0.00000000 </v>
    <v>       0.00000000       0.10376671       0.00000000 </v>
    <v>       0.00000000       0.00000000       0.03072864 </v>
   </varray>
  </crystal>
  <varray name="positions" >
   <v>       0.21918739       0.45317046       0.50974693 </v>
   <v>       0.21364338       0.48698844       0.46112281 </v>
   <v>       0.76213509       0.84483365       0.46286328 </v>
   <v>       0.79188918       0.68244978       0.47729449 </v>
   <v>       0.61346897       0.98314218       0.50798006 </v>
   <v>       0.60212414       0.04806445       0.46572670 </v>
   <v>       0.05790879       0.71962294       0.45487728 </v>
   <v>       0.22801751       0.80903060       0.46010765 </v>
   <v>       0.30891481       0.21429869       0.67165834 </v>
   <v>       0.39339677       0.07794205       0.67572605 </v>
   <v>       0.77667347       0.53683217       0.59234885 </v>
   <v>       0.78710482       0.69798429       0.59574206 </v>
   <v>       0.88110684       0.40583588       0.75500547 </v>
   <v>       0.76601077       0.36438794       0.72159214 </v>
   <v>       0.47060495       0.79789718       0.69379883 </v>
   <v>       0.60031475       0.92148333       0.70088985 </v>
   <v>       0.45146231       0.72890714       0.61923189 </v>
   <v>       0.23018985       0.14755231       0.56428819 </v>
   <v>       0.20287531       0.82864829       0.63463519 </v>
   <v>       0.15361083       0.92983631       0.67242065 </v>
   <v>       0.66435125       0.53376288       0.65609186 </v>
   <v>       0.55895658       0.39746076       0.66814888 </v>
   <v>       0.79283629       0.04856142       0.62443839 </v>
   <v>       0.63036636       0.11183363       0.63672174 </v>
   <v>       0.81490211       0.14007512       0.49352716 </v>
   <v>       0.97130209       0.18613807       0.46997350 </v>
   <v>       0.25215650       0.04453997       0.46638012 </v>
   <v>       0.26598681       0.98499711       0.51031009 </v>
   <v>       0.96004425       0.85125895       0.62286900 </v>
   <v>       0.97766125       0.90990333       0.57988062 </v>
   <v>       0.48790637       0.39324362       0.47794332 </v>
   <v>       0.60435908       0.27748855       0.45874800 </v>
   <v>       0.86824332       0.31748069       0.55572920 </v>
   <v>       0.84818711       0.26418419       0.59866947 </v>
   <v>       0.45123147       0.20314808       0.58440895 </v>
   <v>       0.47325699       0.27398095       0.54318132 </v>
   <v>       0.27195007       0.42874942       0.59091814 </v>
   <v>       0.09069733       0.44532120       0.58159871 </v>
   <v>       0.05791210       0.17027298       0.71174330 </v>
   <v>       0.94305874       0.13660653       0.67877291 </v>
   <v>       0.07548057       0.12000971       0.53558489 </v>
   <v>       0.32549300       0.67163417       0.58735766 </v>
   <v>       0.73223205       0.43993716       0.50671773 </v>
   <v>       0.72219927       0.56266456       0.53675287 </v>
   <v>       0.49636247       0.91358779       0.57453570 </v>
   <v>       0.67114118       0.97323849       0.57682544 </v>
   <v>       0.28217127       0.64839359       0.69504615 </v>
   <v>       0.44037578       0.57268991       0.69456055 </v>
   <v>       0.23424351       0.41270959       0.48181175 </v>
   <v>       0.82929455       0.76077754       0.45853860 </v>
   <v>       0.67540283       0.99380098       0.48294229 </v>
   <v>       0.17700102       0.71458260       0.44885550 </v>
   <v>       0.40981349       0.17187364       0.66464554 </v>
   <v>       0.71255721       0.60980601       0.60297108 </v>
   <v>       0.84182339       0.32663744       0.74103369 </v>
   <v>       0.50887831       0.88856348       0.68350594 </v>
   <v>       0.15408919       0.07292031       0.55617704 </v>
   <v>       0.12280311       0.84797763       0.65726085 </v>
   <v>       0.62366473       0.47210289       0.67878038 </v>
   <v>       0.74800626       0.12770399       0.64032657 </v>
   <v>       0.93227523       0.16812156       0.49757916 </v>
   <v>       0.29610182       0.96228122       0.48129547 </v>
   <v>       0.89333403       0.86912671       0.59824734 </v>
   <v>       0.57493025       0.32766686       0.48414918 </v>
   <v>       0.88167386       0.34717382       0.58354355 </v>
   <v>       0.41778356       0.28474883       0.56908204 </v>
   <v>       0.18923750       0.49953958       0.58177241 </v>
   <v>       0.05682273       0.12663477       0.68371110 </v>
   <v>       0.36181086       0.75646141       0.60245605 </v>
   <v>       0.77772143       0.53267230       0.51203827 </v>
   <v>       0.56267033       0.99237419       0.56716185 </v>
   <v>       0.39131472       0.66070011       0.70327309 </v>
   <v>       0.16666667       0.08333333       0.24123678 </v>
   <v>       0.50000000       0.08333333       0.24123678 </v>
   <v>       0.83333333       0.08333333       0.24123678 </v>
   <v>       0.00000000       0.33333333       0.24123678 </v>
   <v>       0.33333333       0.33333333       0.24123678 </v>
   <v>       0.66666667       0.33333333       0.24123678 </v>
   <v>       0.16666667       0.58333333       0.24123678 </v>
   <v>       0.50000000       0.58333333       0.24123678 </v>
   <v>       0.83333333       0.58333333       0.24123678 </v>
   <v>       0.00000000       0.83333333       0.24123678 </v>
   <v>       0.33333333       0.83333333       0.24123678 </v>
   <v>       0.66666667       0.83333333       0.24123678 </v>
   <v>       0.00000000       0.16666667       0.31103576 </v>
   <v>       0.33333333       0.16666667       0.31103576 </v>
   <v>       0.66666667       0.16666667       0.31103576 </v>
   <v>       0.16666667       0.41666667       0.31103576 </v>
   <v>       0.50000000       0.41666667       0.31103576 </v>
   <v>       0.83333333       0.41666667       0.31103576 </v>
   <v>       0.00000000       0.66666667       0.31103576 </v>
   <v>       0.33333333       0.66666667       0.31103576 </v>
   <v>       0.66666667       0.66666667       0.31103576 </v>
   <v>       0.16666667       0.91666667       0.31103576 </v>
   <v>       0.50000000       0.91666667       0.31103576 </v>
   <v>       0.83333333       0.91666667       0.31103576 </v>
   <v>       0.99819264       0.00743185       0.38576708 </v>
   <v>       0.34542774       0.99282545       0.38351293 </v>
   <v>       0.66912597       0.99991882       0.38205178 </v>
   <v>       0.15784754       0.24582698       0.38825808 </v>
   <v>       0.50642908       0.25510297       0.38462488 </v>
   <v>       0.83300104       0.23987068       0.38222989 </v>
   <v>       0.97443757       0.49071732       0.38680529 </v>
   <v>       0.31255423       0.48800904       0.38084272 </v>
   <v>       0.64453150       0.51530174       0.38583072 </v>
   <v>       0.15532530       0.73982012       0.38163802 </v>
   <v>       0.48260676       0.75531980       0.38333309 </v>
   <v>       0.81879078       0.75604243       0.38246900 </v>
  </varray>
  <varray name="selective"  type="logical" >
   <v type="logical" >  T  T  T </v>
   <v type="logical" >  T  T  T </v>
   <v type="logical" >  T  T  T </v>
   <v type="logical" >  T  T  T </v>
   <v type="logical" >  T  T  T </v>
   <v type="logical" >  T  T  T </v>
   <v type="logical" >  T  T  T </v>
   <v type="logical" >  T  T  T </v>
   <v type="logical" >  T  T  T </v>
   <v type="logical" >  T  T  T </v>
   <v type="logical" >  T  T  T </v>
   <v type="logical" >  T  T  T </v>
   <v type="logical" >  T  T  T </v>
   <v type="logical" >  T  T  T </v>
   <v type="logical" >  T  T  T </v>
   <v type="logical" >  T  T  T </v>
   <v type="logical" >  T  T  T </v>
   <v type="logical" >  T  T  T </v>
   <v type="logical" >  T  T  T </v>
   <v type="logical" >  T  T  T </v>
   <v type="logical" >  T  T  T </v>
   <v type="logical" >  T  T  T </v>
   <v type="logical" >  T  T  T </v>
   <v type="logical" >  T  T  T </v>
   <v type="logical" >  T  T  T </v>
   <v type="logical" >  T  T  T </v>
   <v type="logical" >  T  T  T </v>
   <v type="logical" >  T  T  T </v>
   <v type="logical" >  T  T  T </v>
   <v type="logical" >  T  T  T </v>
   <v type="logical" >  T  T  T </v>
   <v type="logical" >  T  T  T </v>
   <v type="logical" >  T  T  T </v>
   <v type="logical" >  T  T  T </v>
   <v type="logical" >  T  T  T </v>
   <v type="logical" >  T  T  T </v>
   <v type="logical" >  T  T  T </v>
   <v type="logical" >  T  T  T </v>
   <v type="logical" >  T  T  T </v>
   <v type="logical" >  T  T  T </v>
   <v type="logical" >  T  T  T </v>
   <v type="logical" >  T  T  T </v>
   <v type="logical" >  T  T  T </v>
   <v type="logical" >  T  T  T </v>
   <v type="logical" >  T  T  T </v>
   <v type="logical" >  T  T  T </v>
   <v type="logical" >  T  T  T </v>
   <v type="logical" >  T  T  T </v>
   <v type="logical" >  T  T  T </v>
   <v type="logical" >  T  T  T </v>
   <v type="logical" >  T  T  T </v>
   <v type="logical" >  T  T  T </v>
   <v type="logical" >  T  T  T </v>
   <v type="logical" >  T  T  T </v>
   <v type="logical" >  T  T  T </v>
   <v type="logical" >  T  T  T </v>
   <v type="logical" >  T  T  T </v>
   <v type="logical" >  T  T  T </v>
   <v type="logical" >  T  T  T </v>
   <v type="logical" >  T  T  T </v>
   <v type="logical" >  T  T  T </v>
   <v type="logical" >  T  T  T </v>
   <v type="logical" >  T  T  T </v>
   <v type="logical" >  T  T  T </v>
   <v type="logical" >  T  T  T </v>
   <v type="logical" >  T  T  T </v>
   <v type="logical" >  T  T  T </v>
   <v type="logical" >  T  T  T </v>
   <v type="logical" >  T  T  T </v>
   <v type="logical" >  T  T  T </v>
   <v type="logical" >  T  T  T </v>
   <v type="logical" >  T  T  T </v>
   <v type="logical" >  F  F  F </v>
   <v type="logical" >  F  F  F </v>
   <v type="logical" >  F  F  F </v>
   <v type="logical" >  F  F  F </v>
   <v type="logical" >  F  F  F </v>
   <v type="logical" >  F  F  F </v>
   <v type="logical" >  F  F  F </v>
   <v type="logical" >  F  F  F </v>
   <v type="logical" >  F  F  F </v>
   <v type="logical" >  F  F  F </v>
   <v type="logical" >  F  F  F </v>
   <v type="logical" >  F  F  F </v>
   <v type="logical" >  F  F  F </v>
   <v type="logical" >  F  F  F </v>
   <v type="logical" >  F  F  F </v>
   <v type="logical" >  F  F  F </v>
   <v type="logical" >  F  F  F </v>
   <v type="logical" >  F  F  F </v>
   <v type="logical" >  F  F  F </v>
   <v type="logical" >  F  F  F </v>
   <v type="logical" >  F  F  F </v>
   <v type="logical" >  F  F  F </v>
   <v type="logical" >  F  F  F </v>
   <v type="logical" >  F  F  F </v>
   <v type="logical" >  T  T  T </v>
   <v type="logical" >  T  T  T </v>
   <v type="logical" >  T  T  T </v>
   <v type="logical" >  T  T  T </v>
   <v type="logical" >  T  T  T </v>
   <v type="logical" >  T  T  T </v>
   <v type="logical" >  T  T  T </v>
   <v type="logical" >  T  T  T </v>
   <v type="logical" >  T  T  T </v>
   <v type="logical" >  T  T  T </v>
   <v type="logical" >  T  T  T </v>
   <v type="logical" >  T  T  T </v>
  </varray>
  <varray name="velocities" >
   <v>       0.00200463      -0.00053529       0.00030452 </v>
   <v>       0.00004489       0.00135497      -0.00033369 </v>
   <v>      -0.00250914       0.00102338      -0.00022546 </v>
   <v>       0.00024986      -0.00117297       0.00107261 </v>
   <v>      -0.00245173       0.00000294      -0.00007484 </v>
   <v>       0.00104430      -0.00203777       0.00022807 </v>
   <v>       0.00214374      -0.00042377      -0.00056867 </v>
   <v>      -0.00097159      -0.00316981       0.00037452 </v>
   <v>      -0.00013505      -0.00097816      -0.00084934 </v>
   <v>       0.00044400      -0.00046164      -0.00104136 </v>
   <v>      -0.00341588      -0.00115589       0.00020033 </v>
   <v>       0.00159634      -0.00001132      -0.00018774 </v>
   <v>       0.00394061      -0.00317507      -0.00058801 </v>
   <v>       0.00194608       0.00202438      -0.00038807 </v>
   <v>       0.00299984       0.00072763      -0.00082118 </v>
   <v>       0.00076537       0.00315909       0.00011710 </v>
   <v>      -0.00157135       0.00038692       0.00049545 </v>
   <v>      -0.00142876       0.00184023       0.00040381 </v>
   <v>       0.00004724       0.00228444       0.00039295 </v>
   <v>       0.00050699       0.00068217      -0.00005375 </v>
   <v>      -0.00312897      -0.00089273      -0.00022921 </v>
   <v>      -0.00035715      -0.00036806       0.00005559 </v>
   <v>      -0.00066150      -0.00099848      -0.00053412 </v>
   <v>       0.00198245       0.00211008      -0.00052970 </v>
   <v>       0.00111846      -0.00165269      -0.00077519 </v>
   <v>      -0.00017121      -0.00058412       0.00050308 </v>
   <v>      -0.00234405      -0.00027901      -0.00010331 </v>
   <v>      -0.00378002      -0.00190435      -0.00023857 </v>
   <v>       0.00152294      -0.00085477       0.00067635 </v>
   <v>      -0.00139584      -0.00189076      -0.00051580 </v>
   <v>      -0.00272032       0.00095806       0.00029218 </v>
   <v>      -0.00119392      -0.00087804       0.00006982 </v>
   <v>       0.00365534       0.00096683       0.00010051 </v>
   <v>      -0.00197709       0.00127362      -0.00136778 </v>
   <v>      -0.00265066      -0.00292331       0.00006546 </v>
   <v>       0.00000658      -0.00011963      -0.00028686 </v>
   <v>       0.00151629       0.00169417       0.00059256 </v>
   <v>      -0.00058032       0.00101852      -0.00040371 </v>
   <v>      -0.00196552       0.00221361      -0.00015495 </v>
   <v>      -0.00238980       0.00198761      -0.00033880 </v>
   <v>      -0.00315221      -0.00220228      -0.00050968 </v>
   <v>      -0.00052882      -0.00230462       0.00067702 </v>
   <v>       0.00237982       0.00031648       0.00053379 </v>
   <v>       0.00013201      -0.00001652       0.00064931 </v>
   <v>       0.00054798      -0.00020591       0.00036752 </v>
   <v>      -0.00240030      -0.00121492      -0.00062065 </v>
   <v>       0.00064581       0.00101189       0.00019780 </v>
   <v>      -0.00138721      -0.00114926      -0.00010987 </v>
   <v>      -0.00101497      -0.00011929      -0.00007282 </v>
   <v>       0.00003085      -0.00014622      -0.00004824 </v>
   <v>      -0.00050752      -0.00004882       0.00010639 </v>
   <v>       0.00013060       0.00066974       0.00006419 </v>
   <v>      -0.00086137      -0.00006233      -0.00005994 </v>
   <v>      -0.00001536      -0.00011194      -0.00014110 </v>
   <v>       0.00022181       0.00002161      -0.00008746 </v>
   <v>      -0.00078344       0.00044336       0.00006623 </v>
   <v>      -0.00032693       0.00007718      -0.00007948 </v>
   <v>      -0.00025025       0.00005104      -0.00025999 </v>
   <v>       0.00117671      -0.00028300       0.00007180 </v>
   <v>      -0.00017728      -0.00055313       0.00010102 </v>
   <v>       0.00001565      -0.00023439      -0.00001011 </v>
   <v>      -0.00003377      -0.00024751       0.00004930 </v>
   <v>       0.00182653      -0.00110440       0.00011921 </v>
   <v>       0.00056000       0.00019011      -0.00005133 </v>
   <v>       0.00013549      -0.00021788       0.00002479 </v>
   <v>       0.00028448      -0.00012197       0.00013647 </v>
   <v>      -0.00013068       0.00043031       0.00014408 </v>
   <v>       0.00004739      -0.00030267       0.00013643 </v>
   <v>      -0.00043917      -0.00019512      -0.00019386 </v>
   <v>      -0.00056370      -0.00049407       0.00010428 </v>
   <v>       0.00093678       0.00012876      -0.00003341 </v>
   <v>       0.00041527       0.00044604      -0.00003417 </v>
   <v>       0.00000000       0.00000000       0.00000000 </v>
   <v>       0.00000000       0.00000000       0.00000000 </v>
   <v>       0.00000000       0.00000000       0.00000000 </v>
   <v>       0.00000000       0.00000000       0.00000000 </v>
   <v>       0.00000000       0.00000000       0.00000000 </v>
   <v>       0.00000000       0.00000000       0.00000000 </v>
   <v>       0.00000000       0.00000000       0.00000000 </v>
   <v>       0.00000000       0.00000000       0.00000000 </v>
   <v>       0.00000000       0.00000000       0.00000000 </v>
   <v>       0.00000000       0.00000000       0.00000000 </v>
   <v>       0.00000000       0.00000000       0.00000000 </v>
   <v>       0.00000000       0.00000000       0.00000000 </v>
   <v>       0.00000000       0.00000000       0.00000000 </v>
   <v>       0.00000000       0.00000000       0.00000000 </v>
   <v>       0.00000000       0.00000000       0.00000000 </v>
   <v>       0.00000000       0.00000000       0.00000000 </v>
   <v>       0.00000000       0.00000000       0.00000000 </v>
   <v>       0.00000000       0.00000000       0.00000000 </v>
   <v>       0.00000000       0.00000000       0.00000000 </v>
   <v>       0.00000000       0.00000000       0.00000000 </v>
   <v>       0.00000000       0.00000000       0.00000000 </v>
   <v>       0.00000000       0.00000000       0.00000000 </v>
   <v>       0.00000000       0.00000000       0.00000000 </v>
   <v>       0.00000000       0.00000000       0.00000000 </v>
   <v>      -0.00015151      -0.00003126       0.00002423 </v>
   <v>       0.00007658       0.00017573      -0.00004330 </v>
   <v>      -0.00028855      -0.00002687       0.00004982 </v>
   <v>       0.00013616      -0.00009256      -0.00002205 </v>
   <v>      -0.00009151       0.00009054      -0.00002816 </v>
   <v>      -0.00005051       0.00015709      -0.00004166 </v>
   <v>       0.00031412      -0.00005710      -0.00003176 </v>
   <v>      -0.00000470      -0.00018263      -0.00000111 </v>
   <v>      -0.00024709       0.00012583      -0.00000314 </v>
   <v>       0.00015882       0.00012548      -0.00000527 </v>
   <v>      -0.00011212       0.00012572      -0.00000072 </v>
   <v>      -0.00017309       0.00019550       0.00004158 </v>
  </varray>
  <nose>
   <v>       0.07314819       0.00000000     300.00000000     300.00000000 </v>
  </nose>
 </structure>
</modeling>
