 108 108   0   0
  0.2423524E+02  0.8345889E-09  0.9637002E-09  0.3254293E-08  0.5000000E-15
  1.000000000000000E-004
  CAR 
 CuH2O                                   
      6.43313788    -24.24876403  301     -0.50435759      1.00000000
    -24.249  0.0000E+00  0.0000E+00
    -24.146  0.0000E+00  0.0000E+00
    -24.044  0.0000E+00  0.0000E+00
    -23.942  0.0000E+00  0.0000E+00
    -23.840  0.0000E+00  0.0000E+00
    -23.737  0.0000E+00  0.0000E+00
    -23.635  0.0000E+00  0.0000E+00
    -23.533  0.0000E+00  0.0000E+00
    -23.431  0.3257E-14  0.3331E-15
    -23.328  0.1898E-09  0.1941E-10
    -23.226  0.1378E-05  0.1409E-06
    -23.124  0.1316E-02  0.1347E-03
    -23.021  0.1720E+00  0.1772E-01
    -22.919  0.3298E+01  0.3550E+00
    -22.817  0.1020E+02  0.1398E+01
    -22.715  0.5579E+01  0.1969E+01
    -22.612  0.4857E+01  0.2465E+01
    -22.510  0.1859E+02  0.4367E+01
    -22.408  0.1406E+02  0.5805E+01
    -22.306  0.2206E+01  0.6031E+01
    -22.203  0.5064E+01  0.6549E+01
    -22.101  0.1588E+02  0.8173E+01
    -21.999  0.2049E+02  0.1027E+02
    -21.896  0.2835E+02  0.1317E+02
    -21.794  0.2761E+02  0.1599E+02
    -21.692  0.3188E+02  0.1925E+02
    -21.590  0.4219E+02  0.2357E+02
    -21.487  0.4781E+02  0.2846E+02
    -21.385  0.3488E+02  0.3202E+02
    -21.283  0.3370E+02  0.3547E+02
    -21.181  0.3501E+02  0.3905E+02
    -21.078  0.1668E+02  0.4076E+02
    -20.976  0.1923E+02  0.4272E+02
    -20.874  0.1221E+02  0.4397E+02
    -20.771  0.9200E+01  0.4491E+02
    -20.669  0.8868E+01  0.4582E+02
    -20.567  0.1707E+01  0.4599E+02
    -20.465  0.5180E-01  0.4600E+02
    -20.362  0.2255E-03  0.4600E+02
    -20.260  0.1326E-06  0.4600E+02
    -20.158  0.1020E-10  0.4600E+02
    -20.056  0.0000E+00  0.4600E+02
    -19.953  0.0000E+00  0.4600E+02
    -19.851  0.0000E+00  0.4600E+02
    -19.749  0.0000E+00  0.4600E+02
    -19.646  0.0000E+00  0.4600E+02
    -19.544  0.0000E+00  0.4600E+02
    -19.442  0.0000E+00  0.4600E+02
    -19.340  0.0000E+00  0.4600E+02
    -19.237  0.2171E-14  0.4600E+02
    -19.135  0.1082E-09  0.4600E+02
    -19.033  0.8810E-06  0.4600E+02
    -18.931  0.9426E-03  0.4600E+02
    -18.828  0.1376E+00  0.4601E+02
    -18.726  0.2933E+01  0.4631E+02
    -18.624  0.1003E+02  0.4734E+02
    -18.521  0.5875E+01  0.4794E+02
    -18.419  0.5711E+00  0.4800E+02
    -18.317  0.8398E-02  0.4800E+02
    -18.215  0.1723E-04  0.4800E+02
    -18.112  0.4702E-08  0.4800E+02
    -18.010  0.1665E-12  0.4800E+02
    -17.908  0.0000E+00  0.4800E+02
    -17.806  0.0000E+00  0.4800E+02
    -17.703  0.0000E+00  0.4800E+02
    -17.601  0.0000E+00  0.4800E+02
    -17.499  0.0000E+00  0.4800E+02
    -17.396  0.0000E+00  0.4800E+02
    -17.294  0.0000E+00  0.4800E+02
    -17.192  0.0000E+00  0.4800E+02
    -17.090  0.0000E+00  0.4800E+02
    -16.987  0.0000E+00  0.4800E+02
    -16.885  0.0000E+00  0.4800E+02
    -16.783  0.0000E+00  0.4800E+02
    -16.681  0.0000E+00  0.4800E+02
    -16.578  0.0000E+00  0.4800E+02
    -16.476  0.0000E+00  0.4800E+02
    -16.374  0.0000E+00  0.4800E+02
    -16.271  0.0000E+00  0.4800E+02
    -16.169  0.0000E+00  0.4800E+02
    -16.067  0.0000E+00  0.4800E+02
    -15.965  0.0000E+00  0.4800E+02
    -15.862  0.0000E+00  0.4800E+02
    -15.760  0.0000E+00  0.4800E+02
    -15.658  0.0000E+00  0.4800E+02
    -15.556  0.0000E+00  0.4800E+02
    -15.453  0.0000E+00  0.4800E+02
    -15.351  0.0000E+00  0.4800E+02
    -15.249  0.0000E+00  0.4800E+02
    -15.146  0.0000E+00  0.4800E+02
    -15.044  0.0000E+00  0.4800E+02
    -14.942  0.0000E+00  0.4800E+02
    -14.840  0.0000E+00  0.4800E+02
    -14.737  0.0000E+00  0.4800E+02
    -14.635  0.0000E+00  0.4800E+02
    -14.533  0.0000E+00  0.4800E+02
    -14.431  0.0000E+00  0.4800E+02
    -14.328  0.0000E+00  0.4800E+02
    -14.226  0.0000E+00  0.4800E+02
    -14.124  0.0000E+00  0.4800E+02
    -14.021  0.0000E+00  0.4800E+02
    -13.919  0.0000E+00  0.4800E+02
    -13.817  0.0000E+00  0.4800E+02
    -13.715  0.0000E+00  0.4800E+02
    -13.612  0.0000E+00  0.4800E+02
    -13.510  0.0000E+00  0.4800E+02
    -13.408  0.0000E+00  0.4800E+02
    -13.306  0.0000E+00  0.4800E+02
    -13.203  0.0000E+00  0.4800E+02
    -13.101  0.0000E+00  0.4800E+02
    -12.999  0.0000E+00  0.4800E+02
    -12.896  0.0000E+00  0.4800E+02
    -12.794  0.0000E+00  0.4800E+02
    -12.692  0.0000E+00  0.4800E+02
    -12.590  0.0000E+00  0.4800E+02
    -12.487  0.0000E+00  0.4800E+02
    -12.385  0.0000E+00  0.4800E+02
    -12.283  0.0000E+00  0.4800E+02
    -12.181  0.0000E+00  0.4800E+02
    -12.078  0.0000E+00  0.4800E+02
    -11.976  0.0000E+00  0.4800E+02
    -11.874  0.0000E+00  0.4800E+02
    -11.771  0.0000E+00  0.4800E+02
    -11.669  0.0000E+00  0.4800E+02
    -11.567  0.0000E+00  0.4800E+02
    -11.465  0.0000E+00  0.4800E+02
    -11.362  0.0000E+00  0.4800E+02
    -11.260  0.0000E+00  0.4800E+02
    -11.158  0.0000E+00  0.4800E+02
    -11.056  0.0000E+00  0.4800E+02
    -10.953  0.0000E+00  0.4800E+02
    -10.851  0.0000E+00  0.4800E+02
    -10.749  0.5188E-12  0.4800E+02
    -10.646  0.1191E-07  0.4800E+02
    -10.544  0.3547E-04  0.4800E+02
    -10.442  0.1410E-01  0.4800E+02
    -10.340  0.7888E+00  0.4808E+02
    -10.237  0.6862E+01  0.4878E+02
    -10.135  0.1292E+02  0.5011E+02
    -10.033  0.1765E+02  0.5191E+02
     -9.931  0.1687E+02  0.5364E+02
     -9.828  0.1157E+02  0.5482E+02
     -9.726  0.2492E+02  0.5737E+02
     -9.624  0.3326E+02  0.6077E+02
     -9.521  0.3263E+02  0.6411E+02
     -9.419  0.2157E+02  0.6631E+02
     -9.317  0.2880E+02  0.6926E+02
     -9.215  0.5426E+02  0.7480E+02
     -9.112  0.5766E+02  0.8070E+02
     -9.010  0.4634E+02  0.8544E+02
     -8.908  0.2716E+02  0.8822E+02
     -8.806  0.2947E+02  0.9123E+02
     -8.703  0.2720E+02  0.9401E+02
     -8.601  0.1625E+02  0.9568E+02
     -8.499  0.8277E+01  0.9652E+02
     -8.396  0.5153E+01  0.9705E+02
     -8.294  0.3563E+01  0.9741E+02
     -8.192  0.8246E+00  0.9750E+02
     -8.090  0.4570E+00  0.9754E+02
     -7.987  0.3173E+01  0.9787E+02
     -7.885  0.6330E+01  0.9852E+02
     -7.783  0.6154E+01  0.9915E+02
     -7.681  0.4258E+01  0.9958E+02
     -7.578  0.6106E+01  0.1002E+03
     -7.476  0.8816E+01  0.1011E+03
     -7.374  0.1071E+02  0.1022E+03
     -7.271  0.1056E+02  0.1033E+03
     -7.169  0.1969E+02  0.1053E+03
     -7.067  0.2705E+02  0.1081E+03
     -6.965  0.2079E+02  0.1102E+03
     -6.862  0.2553E+02  0.1128E+03
     -6.760  0.3648E+02  0.1165E+03
     -6.658  0.4490E+02  0.1211E+03
     -6.556  0.4408E+02  0.1256E+03
     -6.453  0.4751E+02  0.1305E+03
     -6.351  0.5713E+02  0.1363E+03
     -6.249  0.5919E+02  0.1424E+03
     -6.146  0.6115E+02  0.1486E+03
     -6.044  0.7860E+02  0.1567E+03
     -5.942  0.9307E+02  0.1662E+03
     -5.840  0.8928E+02  0.1753E+03
     -5.737  0.9132E+02  0.1847E+03
     -5.635  0.8557E+02  0.1934E+03
     -5.533  0.5969E+02  0.1995E+03
     -5.431  0.4643E+02  0.2043E+03
     -5.328  0.5378E+02  0.2098E+03
     -5.226  0.5658E+02  0.2156E+03
     -5.124  0.4734E+02  0.2204E+03
     -5.021  0.4680E+02  0.2252E+03
     -4.919  0.4272E+02  0.2296E+03
     -4.817  0.3899E+02  0.2335E+03
     -4.715  0.4395E+02  0.2380E+03
     -4.612  0.6534E+02  0.2447E+03
     -4.510  0.8613E+02  0.2535E+03
     -4.408  0.7496E+02  0.2612E+03
     -4.306  0.5405E+02  0.2667E+03
     -4.203  0.5730E+02  0.2726E+03
     -4.101  0.9081E+02  0.2819E+03
     -3.999  0.1246E+03  0.2946E+03
     -3.896  0.1043E+03  0.3053E+03
     -3.794  0.8434E+02  0.3139E+03
     -3.692  0.8351E+02  0.3225E+03
     -3.590  0.1037E+03  0.3331E+03
     -3.487  0.1200E+03  0.3453E+03
     -3.385  0.1179E+03  0.3574E+03
     -3.283  0.1063E+03  0.3682E+03
     -3.181  0.1030E+03  0.3788E+03
     -3.078  0.9836E+02  0.3888E+03
     -2.976  0.8235E+02  0.3973E+03
     -2.874  0.6612E+02  0.4040E+03
     -2.771  0.6433E+02  0.4106E+03
     -2.669  0.6478E+02  0.4172E+03
     -2.567  0.4734E+02  0.4221E+03
     -2.465  0.4266E+02  0.4264E+03
     -2.362  0.4357E+02  0.4309E+03
     -2.260  0.5512E+02  0.4365E+03
     -2.158  0.6702E+02  0.4434E+03
     -2.056  0.7224E+02  0.4508E+03
     -1.953  0.7673E+02  0.4586E+03
     -1.851  0.7549E+02  0.4663E+03
     -1.749  0.6702E+02  0.4732E+03
     -1.646  0.4926E+02  0.4782E+03
     -1.544  0.5229E+02  0.4836E+03
     -1.442  0.4953E+02  0.4886E+03
     -1.340  0.3841E+02  0.4926E+03
     -1.237  0.4856E+02  0.4975E+03
     -1.135  0.5953E+02  0.5036E+03
     -1.033  0.5947E+02  0.5097E+03
     -0.931  0.6799E+02  0.5167E+03
     -0.828  0.7260E+02  0.5241E+03
     -0.726  0.7753E+02  0.5320E+03
     -0.624  0.9005E+02  0.5412E+03
     -0.521  0.9086E+02  0.5505E+03
     -0.419  0.7847E+02  0.5585E+03
     -0.317  0.5634E+02  0.5643E+03
     -0.215  0.4853E+02  0.5693E+03
     -0.112  0.3459E+02  0.5728E+03
     -0.010  0.1818E+02  0.5747E+03
      0.092  0.1310E+02  0.5760E+03
      0.194  0.1105E+02  0.5771E+03
      0.297  0.1155E+02  0.5783E+03
      0.399  0.1450E+02  0.5798E+03
      0.501  0.1438E+02  0.5813E+03
      0.604  0.1398E+02  0.5827E+03
      0.706  0.1757E+02  0.5845E+03
      0.808  0.1165E+02  0.5857E+03
      0.910  0.5825E+01  0.5863E+03
      1.013  0.8472E+01  0.5872E+03
      1.115  0.1777E+02  0.5890E+03
      1.217  0.2103E+02  0.5911E+03
      1.319  0.1456E+02  0.5926E+03
      1.422  0.1136E+02  0.5938E+03
      1.524  0.9963E+01  0.5948E+03
      1.626  0.1691E+02  0.5965E+03
      1.729  0.2448E+02  0.5990E+03
      1.831  0.1533E+02  0.6006E+03
      1.933  0.1163E+02  0.6018E+03
      2.035  0.8278E+01  0.6026E+03
      2.138  0.1034E+02  0.6037E+03
      2.240  0.1432E+02  0.6052E+03
      2.342  0.1729E+02  0.6069E+03
      2.444  0.2230E+02  0.6092E+03
      2.547  0.2159E+02  0.6114E+03
      2.649  0.1570E+02  0.6130E+03
      2.751  0.2087E+02  0.6152E+03
      2.854  0.1975E+02  0.6172E+03
      2.956  0.1549E+02  0.6188E+03
      3.058  0.1607E+02  0.6204E+03
      3.160  0.1191E+02  0.6216E+03
      3.263  0.1958E+02  0.6236E+03
      3.365  0.2694E+02  0.6264E+03
      3.467  0.2033E+02  0.6285E+03
      3.569  0.2176E+02  0.6307E+03
      3.672  0.2237E+02  0.6330E+03
      3.774  0.2046E+02  0.6351E+03
      3.876  0.1776E+02  0.6369E+03
      3.979  0.1780E+02  0.6387E+03
      4.081  0.2222E+02  0.6410E+03
      4.183  0.2624E+02  0.6437E+03
      4.285  0.2819E+02  0.6465E+03
      4.388  0.2920E+02  0.6495E+03
      4.490  0.2954E+02  0.6525E+03
      4.592  0.2948E+02  0.6556E+03
      4.694  0.2139E+02  0.6577E+03
      4.797  0.1798E+02  0.6596E+03
      4.899  0.1246E+02  0.6609E+03
      5.001  0.7036E+01  0.6616E+03
      5.104  0.3416E+01  0.6619E+03
      5.206  0.6709E+00  0.6620E+03
      5.308  0.3034E-01  0.6620E+03
      5.410  0.2255E-03  0.6620E+03
      5.513  0.2358E-06  0.6620E+03
      5.615  0.3264E-10  0.6620E+03
      5.717  0.7237E-15  0.6620E+03
      5.819  0.0000E+00  0.6620E+03
      5.922  0.0000E+00  0.6620E+03
      6.024  0.0000E+00  0.6620E+03
      6.126  0.0000E+00  0.6620E+03
      6.229  0.0000E+00  0.6620E+03
      6.331  0.0000E+00  0.6620E+03
      6.433  0.0000E+00  0.6620E+03
