       N       E                     dE             d eps       ncg     rms          rms(c)
DAV:   1     0.369946223418E+04    0.36995E+04   -0.21283E+05  4810   0.115E+03
DAV:   2    -0.143706659072E+03   -0.38432E+04   -0.36473E+04  5764   0.284E+02
DAV:   3    -0.557065965397E+03   -0.41336E+03   -0.39912E+03  5284   0.972E+01
DAV:   4    -0.572096465830E+03   -0.15031E+02   -0.13869E+02  5772   0.181E+01
DAV:   5    -0.572552665448E+03   -0.45620E+00   -0.45531E+00  6268   0.287E+00    0.693E+01
DAV:   6    -0.633647657574E+03   -0.61095E+02   -0.35224E+02  5521   0.338E+01    0.955E+01
DAV:   7    -0.858033730269E+03   -0.22439E+03   -0.24563E+03  8017   0.658E+01    0.861E+01
DAV:   8    -0.711211164969E+03    0.14682E+03   -0.10693E+04  7627   0.123E+02    0.129E+02
DAV:   9    -0.872986851467E+03   -0.16178E+03   -0.14541E+03  5428   0.479E+01    0.138E+02
DAV:  10    -0.687234203260E+03    0.18575E+03   -0.20171E+02  6036   0.206E+01    0.990E+01
DAV:  11    -0.653397476401E+03    0.33837E+02   -0.10423E+02  5756   0.180E+01    0.886E+01
DAV:  12    -0.594351572405E+03    0.59046E+02   -0.98115E+01  5780   0.139E+01    0.684E+01
DAV:  13    -0.562279776216E+03    0.32072E+02   -0.77893E+01  5668   0.141E+01    0.508E+01
DAV:  14    -0.553124015764E+03    0.91558E+01   -0.40092E+01  5332   0.189E+01    0.495E+01
DAV:  15    -0.553847539209E+03   -0.72352E+00   -0.50273E+01  5644   0.101E+01    0.436E+01
DAV:  16    -0.552037603435E+03    0.18099E+01   -0.72485E+00  5564   0.582E+00    0.426E+01
DAV:  17    -0.551743692131E+03    0.29391E+00   -0.14545E+00  5604   0.306E+00    0.413E+01
DAV:  18    -0.561502984187E+03   -0.97593E+01   -0.59956E+00  5852   0.751E+00    0.440E+01
DAV:  19    -0.576112948305E+03   -0.14610E+02   -0.10378E+01  5940   0.492E+00    0.488E+01
DAV:  20    -0.578876828166E+03   -0.27639E+01   -0.54025E+00  5628   0.173E+00    0.496E+01
DAV:  21    -0.578066063952E+03    0.81076E+00   -0.22300E-01  5852   0.491E-01    0.496E+01
DAV:  22    -0.576612343546E+03    0.14537E+01   -0.76264E-02  5636   0.622E-01    0.493E+01
DAV:  23    -0.577894867288E+03   -0.12825E+01   -0.91124E-02  5332   0.716E-01    0.498E+01
DAV:  24    -0.580656426125E+03   -0.27616E+01   -0.56241E-01  5500   0.154E+00    0.503E+01
DAV:  25    -0.580862701545E+03   -0.20628E+00   -0.11531E-01  5380   0.384E-01    0.503E+01
DAV:  26    -0.582918953880E+03   -0.20563E+01   -0.74881E-01  5316   0.153E+00    0.512E+01
DAV:  27    -0.591038985267E+03   -0.81200E+01   -0.26810E+00  5924   0.169E+00    0.524E+01
DAV:  28    -0.595309195978E+03   -0.42702E+01   -0.74518E-01  5916   0.141E+00    0.537E+01
DAV:  29    -0.596513397943E+03   -0.12042E+01   -0.29685E-01  6036   0.968E-01    0.543E+01
DAV:  30    -0.597073888050E+03   -0.56049E+00   -0.46719E-02  5884   0.356E-01    0.545E+01
DAV:  31    -0.599080984261E+03   -0.20071E+01   -0.22660E-01  5860   0.769E-01    0.553E+01
DAV:  32    -0.602220375553E+03   -0.31394E+01   -0.45706E-01  6052   0.135E+00    0.568E+01
DAV:  33    -0.607302316575E+03   -0.50819E+01   -0.67704E-01  6196   0.151E+00    0.589E+01
DAV:  34    -0.611052990774E+03   -0.37507E+01   -0.42165E-01  6180   0.904E-01    0.604E+01
DAV:  35    -0.610624249119E+03    0.42874E+00   -0.30414E-02  5372   0.321E-01    0.603E+01
DAV:  36    -0.609248396287E+03    0.13759E+01   -0.52724E-02  5948   0.227E-01    0.598E+01
DAV:  37    -0.609200718500E+03    0.47678E-01   -0.21068E-03  5412   0.640E-02    0.598E+01
DAV:  38    -0.606756764106E+03    0.24440E+01   -0.12247E-01  6132   0.564E-01    0.587E+01
DAV:  39    -0.592165913930E+03    0.14591E+02   -0.41099E+00  6572   0.236E+00    0.542E+01
DAV:  40    -0.552834452382E+03    0.39331E+02   -0.27195E+01  6308   0.891E+00    0.338E+01
DAV:  41    -0.538181656302E+03    0.14653E+02   -0.18549E+01  5916   0.821E+00    0.186E+01
DAV:  42    -0.534986173900E+03    0.31955E+01   -0.65551E+00  5900   0.453E+00    0.126E+01
DAV:  43    -0.534747224269E+03    0.23895E+00   -0.65007E-01  5228   0.127E+00    0.125E+01
DAV:  44    -0.533651151774E+03    0.10961E+01   -0.17216E-01  5548   0.773E-01    0.123E+01
DAV:  45    -0.532658424953E+03    0.99273E+00   -0.29957E+00  6300   0.427E+00    0.125E+01
DAV:  46    -0.533659790016E+03   -0.10014E+01   -0.23417E+00  6044   0.332E+00    0.134E+01
DAV:  47    -0.533741367827E+03   -0.81578E-01   -0.37130E-01  5164   0.931E-01    0.135E+01
DAV:  48    -0.533883102655E+03   -0.14173E+00   -0.16692E-02  6985   0.221E-01    0.136E+01
DAV:  49    -0.531620060909E+03    0.22630E+01   -0.90386E-01  5572   0.193E+00    0.120E+01
DAV:  50    -0.530265627790E+03    0.13544E+01   -0.19198E+00  5124   0.332E+00    0.116E+01
DAV:  51    -0.531273938698E+03   -0.10083E+01   -0.12533E+01  5220   0.680E+00    0.196E+01
DAV:  52    -0.529723921984E+03    0.15500E+01   -0.22672E+00  5028   0.218E+00    0.146E+01
DAV:  53    -0.530090869643E+03   -0.36695E+00   -0.22021E+00  4940   0.208E+00    0.194E+01
DAV:  54    -0.528434436940E+03    0.16564E+01   -0.18009E+00  5164   0.234E+00    0.133E+01
DAV:  55    -0.528449699249E+03   -0.15262E-01   -0.13838E+00  5028   0.227E+00    0.133E+01
DAV:  56    -0.529084666075E+03   -0.63497E+00   -0.47587E+00  5692   0.510E+00    0.168E+01
DAV:  57    -0.528983020639E+03    0.10165E+00   -0.59869E-01  5012   0.111E+00    0.168E+01
DAV:  58    -0.529174446284E+03   -0.19143E+00   -0.14532E-01  5516   0.947E-01    0.168E+01
DAV:  59    -0.528238514438E+03    0.93593E+00   -0.74585E-01  5580   0.185E+00    0.126E+01
DAV:  60    -0.528052652904E+03    0.18586E+00   -0.40041E-01  5236   0.175E+00    0.121E+01
DAV:  61    -0.526951314435E+03    0.11013E+01   -0.19631E+00  5036   0.239E+00    0.990E+00
DAV:  62    -0.528989714649E+03   -0.20384E+01   -0.50424E-01  5116   0.174E+00    0.146E+01
DAV:  63    -0.529229518654E+03   -0.23980E+00   -0.32305E-01  5068   0.149E+00    0.145E+01
DAV:  64    -0.529785278946E+03   -0.55576E+00   -0.29806E-01  5180   0.119E+00    0.149E+01
DAV:  65    -0.529685607195E+03    0.99672E-01   -0.24431E-01  5020   0.118E+00    0.151E+01
DAV:  66    -0.528564853001E+03    0.11208E+01   -0.75169E-01  4948   0.187E+00    0.158E+01
DAV:  67    -0.528331963913E+03    0.23289E+00   -0.21644E-01  5276   0.892E-01    0.163E+01
DAV:  68    -0.528082813212E+03    0.24915E+00   -0.10049E-01  5076   0.666E-01    0.168E+01
DAV:  69    -0.528065001024E+03    0.17812E-01   -0.15564E-01  5132   0.815E-01    0.175E+01
DAV:  70    -0.528176445080E+03   -0.11144E+00   -0.51363E-02  5540   0.433E-01    0.179E+01
DAV:  71    -0.526790399087E+03    0.13860E+01   -0.88134E-01  5217   0.225E+00    0.154E+01
DAV:  72    -0.527446889736E+03   -0.65649E+00   -0.44116E-01  4948   0.131E+00    0.170E+01
DAV:  73    -0.527504221137E+03   -0.57331E-01   -0.12682E-01  5036   0.782E-01    0.173E+01
DAV:  74    -0.527095980833E+03    0.40824E+00   -0.37930E-01  4929   0.557E-01    0.141E+01
DAV:  75    -0.526916828718E+03    0.17915E+00   -0.47104E-02  5004   0.530E-01    0.136E+01
DAV:  76    -0.526710174091E+03    0.20665E+00   -0.76254E-02  5004   0.804E-01    0.132E+01
DAV:  77    -0.526720563173E+03   -0.10389E-01   -0.24160E-01  5204   0.556E-01    0.152E+01
DAV:  78    -0.526460926119E+03    0.25964E+00   -0.16207E-01  5164   0.343E-01    0.131E+01
DAV:  79    -0.526111195395E+03    0.34973E+00   -0.18658E-01  5268   0.777E-01    0.114E+01
DAV:  80    -0.525901683549E+03    0.20951E+00   -0.17835E-01  5500   0.986E-01    0.119E+01
DAV:  81    -0.525619160177E+03    0.28252E+00   -0.78827E-01  5132   0.958E-01    0.103E+01
DAV:  82    -0.525809020790E+03   -0.18986E+00   -0.47261E-01  5188   0.887E-01    0.140E+01
DAV:  83    -0.526172579581E+03   -0.36356E+00   -0.34629E-01  5460   0.745E-01    0.156E+01
DAV:  84    -0.526251863734E+03   -0.79284E-01   -0.20503E-02  5516   0.710E-01    0.155E+01
DAV:  85    -0.526198626918E+03    0.53237E-01   -0.30366E-02  5452   0.723E-01    0.152E+01
DAV:  86    -0.525166764364E+03    0.10319E+01   -0.35455E-01  5105   0.840E-01    0.976E+00
DAV:  87    -0.525560044886E+03   -0.39328E+00   -0.35707E-01  5004   0.669E-01    0.145E+01
DAV:  88    -0.526073548189E+03   -0.51350E+00   -0.14378E-01  5604   0.667E-01    0.150E+01
DAV:  89    -0.526003347026E+03    0.70201E-01   -0.34410E-02  4956   0.196E-01    0.149E+01
DAV:  90    -0.526513660572E+03   -0.51031E+00   -0.58646E-01  5316   0.561E-01    0.185E+01
DAV:  91    -0.532342837879E+03   -0.58292E+01   -0.33184E+00  5404   0.390E+00    0.298E+01
DAV:  92    -0.532777835240E+03   -0.43500E+00   -0.75768E-01  4988   0.118E+00    0.312E+01
DAV:  93    -0.532659904665E+03    0.11793E+00   -0.17954E-02  5676   0.205E-01    0.314E+01
DAV:  94    -0.532097438204E+03    0.56247E+00   -0.15215E-02  5668   0.177E-01    0.311E+01
DAV:  95    -0.531023709129E+03    0.10737E+01   -0.62761E-01  5564   0.470E-01    0.284E+01
DAV:  96    -0.534947522978E+03   -0.39238E+01   -0.42200E+00  5484   0.112E+00    0.322E+01
DAV:  97    -0.535606386261E+03   -0.65886E+00   -0.10790E+00  5172   0.379E-01    0.353E+01
DAV:  98    -0.534681086099E+03    0.92530E+00   -0.14950E-01  4892   0.328E-01    0.336E+01
DAV:  99    -0.533859627867E+03    0.82146E+00   -0.65930E-02  5684   0.575E-01    0.330E+01
DAV: 100    -0.532804909089E+03    0.10547E+01   -0.10062E+00  5708   0.119E+00    0.250E+01
DAV: 101    -0.575324168345E+03   -0.42519E+02   -0.51513E+01  5760   0.110E+01    0.596E+01
DAV: 102    -0.557019628183E+03    0.18305E+02   -0.11856E+01  5108   0.314E+00    0.533E+01
DAV: 103    -0.555461622582E+03    0.15580E+01   -0.30056E-01  5196   0.857E-01    0.527E+01
DAV: 104    -0.552830636117E+03    0.26310E+01   -0.81974E-01  5748   0.470E-01    0.515E+01
DAV: 105    -0.544049184002E+03    0.87815E+01   -0.55240E+00  5820   0.130E+00    0.442E+01
DAV: 106    -0.525722340923E+03    0.18327E+02   -0.33059E+01  6188   0.407E+00    0.182E+01
DAV: 107    -0.525125767250E+03    0.59657E+00   -0.10098E+01  5292   0.348E+00    0.153E+01
DAV: 108    -0.524405825863E+03    0.71994E+00   -0.23355E+00  5700   0.265E+00    0.456E+00
DAV: 109    -0.524520097899E+03   -0.11427E+00   -0.44225E-01  5172   0.144E+00    0.423E+00
DAV: 110    -0.524524570790E+03   -0.44729E-02   -0.11049E-01  5300   0.897E-01    0.424E+00
DAV: 111    -0.524519295236E+03    0.52756E-02   -0.64559E-02  5892   0.997E-01    0.428E+00
DAV: 112    -0.524488580840E+03    0.30714E-01   -0.12087E-01  5852   0.952E-01    0.442E+00
DAV: 113    -0.524493594536E+03   -0.50137E-02   -0.88139E-02  5396   0.652E-01    0.451E+00
DAV: 114    -0.524511841104E+03   -0.18247E-01   -0.58685E-02  5796   0.617E-01    0.455E+00
DAV: 115    -0.524538244236E+03   -0.26403E-01   -0.46889E-02  5268   0.455E-01    0.461E+00
DAV: 116    -0.524531380198E+03    0.68640E-02   -0.13659E-02  4940   0.298E-01    0.461E+00
DAV: 117    -0.524551851454E+03   -0.20471E-01   -0.10881E-02  5868   0.296E-01    0.461E+00
DAV: 118    -0.524615273943E+03   -0.63422E-01   -0.60435E-02  6172   0.697E-01    0.461E+00
DAV: 119    -0.524678799308E+03   -0.63525E-01   -0.88338E-02  5612   0.535E-01    0.458E+00
DAV: 120    -0.524715753957E+03   -0.36955E-01   -0.64333E-02  5676   0.491E-01    0.445E+00
DAV: 121    -0.524744692862E+03   -0.28939E-01   -0.30677E-02  5340   0.402E-01    0.441E+00
DAV: 122    -0.524720550504E+03    0.24142E-01   -0.19463E-02  5692   0.362E-01    0.427E+00
DAV: 123    -0.524615541493E+03    0.10501E+00   -0.40545E-02  6100   0.437E-01    0.397E+00
DAV: 124    -0.524520209065E+03    0.95332E-01   -0.34641E-02  5780   0.380E-01    0.369E+00
DAV: 125    -0.524412466205E+03    0.10774E+00   -0.26143E-02  5828   0.333E-01    0.345E+00
DAV: 126    -0.524335288291E+03    0.77178E-01   -0.15238E-02  5548   0.233E-01    0.331E+00
DAV: 127    -0.524276420280E+03    0.58868E-01   -0.82677E-03  5948   0.188E-01    0.318E+00
DAV: 128    -0.524209058678E+03    0.67362E-01   -0.87009E-03  6252   0.205E-01    0.304E+00
DAV: 129    -0.524092224877E+03    0.11683E+00   -0.26770E-02  6292   0.376E-01    0.278E+00
DAV: 130    -0.523969349715E+03    0.12288E+00   -0.64611E-02  6148   0.574E-01    0.242E+00
DAV: 131    -0.523882457595E+03    0.86892E-01   -0.40461E-01  6340   0.145E+00    0.236E+00
DAV: 132    -0.523848463378E+03    0.33994E-01   -0.14589E-01  4964   0.644E-01    0.232E+00
DAV: 133    -0.523817030006E+03    0.31433E-01   -0.45877E-02  6060   0.471E-01    0.222E+00
DAV: 134    -0.523802760286E+03    0.14270E-01   -0.38409E-02  5780   0.447E-01    0.217E+00
DAV: 135    -0.523780206222E+03    0.22554E-01   -0.12725E-02  5228   0.279E-01    0.204E+00
DAV: 136    -0.523777084787E+03    0.31214E-02   -0.20908E-02  6180   0.463E-01    0.200E+00
DAV: 137    -0.523753540209E+03    0.23545E-01   -0.14100E-02  5292   0.369E-01    0.186E+00
DAV: 138    -0.523726499031E+03    0.27041E-01   -0.14176E-02  6140   0.319E-01    0.171E+00
DAV: 139    -0.523715243038E+03    0.11256E-01   -0.83112E-03  5660   0.239E-01    0.161E+00
DAV: 140    -0.523716843309E+03   -0.16003E-02   -0.33571E-02  6484   0.431E-01    0.157E+00
DAV: 141    -0.523921215531E+03   -0.20437E+00   -0.29140E-01  6444   0.124E+00    0.247E+00
DAV: 142    -0.523908012381E+03    0.13203E-01   -0.82194E-02  4948   0.453E-01    0.250E+00
DAV: 143    -0.523832643218E+03    0.75369E-01   -0.24001E-02  6124   0.440E-01    0.215E+00
DAV: 144    -0.523818908699E+03    0.13735E-01   -0.17538E-02  5412   0.289E-01    0.198E+00
DAV: 145    -0.523762709224E+03    0.56199E-01   -0.15803E-02  6276   0.308E-01    0.175E+00
DAV: 146    -0.523591622879E+03    0.17109E+00   -0.38922E-01  6604   0.157E+00    0.606E-01
DAV: 147    -0.523595149012E+03   -0.35261E-02   -0.13542E-01  4916   0.525E-01    0.467E-01
DAV: 148    -0.523594468010E+03    0.68100E-03   -0.94374E-03  5572   0.246E-01    0.436E-01
DAV: 149    -0.523592682586E+03    0.17854E-02   -0.20809E-03  5052   0.121E-01    0.372E-01
DAV: 150    -0.523590870327E+03    0.18123E-02   -0.11843E-03  5228   0.106E-01    0.353E-01
DAV: 151    -0.523562081199E+03    0.28789E-01   -0.28860E-02  6324   0.103E+00    0.761E-01
DAV: 152    -0.523552944827E+03    0.91364E-02   -0.17091E-02  4972   0.285E-01    0.490E-01
DAV: 153    -0.523544264314E+03    0.86805E-02   -0.39540E-03  5132   0.209E-01    0.340E-01
DAV: 154    -0.523532058562E+03    0.12206E-01   -0.31878E-03  6020   0.306E-01    0.290E-01
DAV: 155    -0.523518285173E+03    0.13773E-01   -0.68882E-03  5924   0.493E-01    0.335E-01
DAV: 156    -0.523510977518E+03    0.73077E-02   -0.82364E-03  5412   0.409E-01    0.296E-01
DAV: 157    -0.523508390287E+03    0.25872E-02   -0.56321E-03  5212   0.249E-01    0.234E-01
DAV: 158    -0.523505780951E+03    0.26093E-02   -0.24084E-03  5716   0.268E-01    0.121E-01
DAV: 159    -0.523504904841E+03    0.87611E-03   -0.23780E-03  5204   0.188E-01    0.999E-02
DAV: 160    -0.523504590982E+03    0.31386E-03   -0.13588E-03  5212   0.143E-01    0.709E-02
DAV: 161    -0.523504586675E+03    0.43065E-05   -0.76584E-04  5148   0.674E-02
   1 F= -.55360059E+03 E0= -.55338688E+03  d E =-.427432E+00
