 vasp.5.4.4.18Apr17-6-g9f103f2a35 (build Feb 25 2019 10:51:38) complex          
  
 executed on             LinuxIFC date 2019.08.03  08:40:05
 running on   16 total cores
 distrk:  each k-point on   16 cores,    1 groups
 distr:  one band on NCORES_PER_BAND=  16 cores,    1 groups


--------------------------------------------------------------------------------------------------------


 INCAR:
 POTCAR:    PAW_PBE H 15Jun2001                   
 POTCAR:    PAW_PBE O 08Apr2002                   
 POTCAR:    PAW_PBE Pt 04Feb2005                  

 ----------------------------------------------------------------------------- 
|                                                                             |
|           W    W    AA    RRRRR   N    N  II  N    N   GGGG   !!!           |
|           W    W   A  A   R    R  NN   N  II  NN   N  G    G  !!!           |
|           W    W  A    A  R    R  N N  N  II  N N  N  G       !!!           |
|           W WW W  AAAAAA  RRRRR   N  N N  II  N  N N  G  GGG   !            |
|           WW  WW  A    A  R   R   N   NN  II  N   NN  G    G                |
|           W    W  A    A  R    R  N    N  II  N    N   GGGG   !!!           |
|                                                                             |
|      For optimal performance we recommend to set                            |
|        NCORE= 4 - approx SQRT( number of cores)                             |
|      NCORE specifies how many cores store one orbital (NPAR=cpu/NCORE).     |
|      This setting can  greatly improve the performance of VASP for DFT.     |
|      The default,   NCORE=1            might be grossly inefficient         |
|      on modern multi-core architectures or massively parallel machines.     |
|      Do your own testing !!!!                                               |
|      Unfortunately you need to use the default for GW and RPA calculations. |
|      (for HF NCORE is supported but not extensively tested yet)             |
|                                                                             |
 ----------------------------------------------------------------------------- 

 POTCAR:    PAW_PBE H 15Jun2001                   
   VRHFIN =H: ultrasoft test                                                    
   LEXCH  = PE                                                                  
   EATOM  =    12.4884 eV,    0.9179 Ry                                         
                                                                                
   TITEL  = PAW_PBE H 15Jun2001                                                 
   LULTRA =        F    use ultrasoft PP ?                                      
   IUNSCR =        0    unscreen: 0-lin 1-nonlin 2-no                           
   RPACOR =    0.000    partial core radius                                     
   POMASS =    1.000; ZVAL   =    1.000    mass and valenz                      
   RCORE  =    1.100    outmost cutoff radius                                   
   RWIGS  =    0.700; RWIGS  =    0.370    wigner-seitz radius (au A)           
   ENMAX  =  250.000; ENMIN  =  200.000 eV                                      
   RCLOC  =    0.701    cutoff for local pot                                    
   LCOR   =        T    correct aug charges                                     
   LPAW   =        T    paw PP                                                  
   EAUG   =  400.000                                                            
   RMAX   =    1.123    core radius for proj-oper                               
   RAUG   =    1.200    factor for augmentation sphere                          
   RDEP   =    1.112    radius for radial grids                                 
   RDEPT  =    0.926    core radius for aug-charge                              
                                                                                
   Atomic configuration                                                         
    2 entries                                                                   
     n  l   j            E        occ.                                          
     1  0  0.50        -6.4927   1.0000                                         
     2  1  0.50        -3.4015   0.0000                                         
   Description                                                                  
     l       E           TYP  RCUT    TYP  RCUT                                 
     0     -6.4927494     23  1.100                                             
     0      6.8029130     23  1.100                                             
     1     -4.0817478     23  1.100                                             
  local pseudopotential read in
  atomic valenz-charges read in
  non local Contribution for L=           0  read in
    real space projection operators read in
  non local Contribution for L=           0  read in
    real space projection operators read in
  non local Contribution for L=           1  read in
    real space projection operators read in
    PAW grid and wavefunctions read in
 
   number of l-projection  operators is LMAX  =           3
   number of lm-projection operators is LMMAX =           5
 
 POTCAR:    PAW_PBE O 08Apr2002                   
   VRHFIN =O: s2p4                                                              
   LEXCH  = PE                                                                  
   EATOM  =   432.3788 eV,   31.7789 Ry                                         
                                                                                
   TITEL  = PAW_PBE O 08Apr2002                                                 
   LULTRA =        F    use ultrasoft PP ?                                      
   IUNSCR =        1    unscreen: 0-lin 1-nonlin 2-no                           
   RPACOR =    1.200    partial core radius                                     
   POMASS =   16.000; ZVAL   =    6.000    mass and valenz                      
   RCORE  =    1.520    outmost cutoff radius                                   
   RWIGS  =    1.550; RWIGS  =    0.820    wigner-seitz radius (au A)           
   ENMAX  =  400.000; ENMIN  =  300.000 eV                                      
   ICORE  =        2    local potential                                         
   LCOR   =        T    correct aug charges                                     
   LPAW   =        T    paw PP                                                  
   EAUG   =  605.392                                                            
   DEXC   =    0.000                                                            
   RMAX   =    1.553    core radius for proj-oper                               
   RAUG   =    1.300    factor for augmentation sphere                          
   RDEP   =    1.550    radius for radial grids                                 
   RDEPT  =    1.329    core radius for aug-charge                              
                                                                                
   Atomic configuration                                                         
    4 entries                                                                   
     n  l   j            E        occ.                                          
     1  0  0.50      -514.6923   2.0000                                         
     2  0  0.50       -23.9615   2.0000                                         
     2  1  0.50        -9.0305   4.0000                                         
     3  2  1.50        -9.5241   0.0000                                         
   Description                                                                  
     l       E           TYP  RCUT    TYP  RCUT                                 
     0    -23.9615318     23  1.200                                             
     0     -9.5240782     23  1.200                                             
     1     -9.0304911     23  1.520                                             
     1      8.1634956     23  1.520                                             
     2     -9.5240782      7  1.500                                             
  local pseudopotential read in
  partial core-charges read in
  partial kinetic energy density read in
  kinetic energy density of atom read in
  atomic valenz-charges read in
  non local Contribution for L=           0  read in
    real space projection operators read in
  non local Contribution for L=           0  read in
    real space projection operators read in
  non local Contribution for L=           1  read in
    real space projection operators read in
  non local Contribution for L=           1  read in
    real space projection operators read in
    PAW grid and wavefunctions read in
 
   number of l-projection  operators is LMAX  =           4
   number of lm-projection operators is LMMAX =           8
 
 POTCAR:    PAW_PBE Pt 04Feb2005                  
   VRHFIN =Pt: s1d9                                                             
   LEXCH  = PE                                                                  
   EATOM  =   729.1176 eV,   53.5886 Ry                                         
                                                                                
   TITEL  = PAW_PBE Pt 04Feb2005                                                
   LULTRA =        F    use ultrasoft PP ?                                      
   IUNSCR =        1    unscreen: 0-lin 1-nonlin 2-no                           
   RPACOR =    2.330    partial core radius                                     
   POMASS =  195.080; ZVAL   =   10.000    mass and valenz                      
   RCORE  =    2.600    outmost cutoff radius                                   
   RWIGS  =    2.750; RWIGS  =    1.455    wigner-seitz radius (au A)           
   ENMAX  =  230.283; ENMIN  =  172.712 eV                                      
   ICORE  =        3    local potential                                         
   LCOR   =        T    correct aug charges                                     
   LPAW   =        T    paw PP                                                  
   EAUG   =  358.966                                                            
   DEXC   =    0.000                                                            
   RMAX   =    2.658    core radius for proj-oper                               
   RAUG   =    1.300    factor for augmentation sphere                          
   RDEP   =    2.761    radius for radial grids                                 
   RDEPT  =    2.203    core radius for aug-charge                              
                                                                                
   Atomic configuration                                                         
   16 entries                                                                   
     n  l   j            E        occ.                                          
     1  0  0.50    -78401.1885   2.0000                                         
     2  0  0.50    -13770.7750   2.0000                                         
     2  1  1.50    -11931.0468   6.0000                                         
     3  0  0.50     -3234.7234   2.0000                                         
     3  1  1.50     -2699.2216   6.0000                                         
     3  2  2.50     -2119.5714  10.0000                                         
     4  0  0.50      -695.1528   2.0000                                         
     4  1  1.50      -519.6034   6.0000                                         
     4  2  2.50      -306.6786  10.0000                                         
     4  3  3.50       -70.1041  14.0000                                         
     5  0  0.50      -101.7747   2.0000                                         
     5  1  1.50       -55.9873   6.0000                                         
     5  2  2.50        -6.1423   9.0000                                         
     6  0  0.50        -5.6573   1.0000                                         
     6  1  1.50        -6.8029   0.0000                                         
     5  3  2.50        -1.3606   0.0000                                         
   Description                                                                  
     l       E           TYP  RCUT    TYP  RCUT                                 
     2     -6.1423404     23  2.500                                             
     2     -7.5029230     23  2.500                                             
     0     -5.6573207     23  2.500                                             
     0      0.7416693     23  2.500                                             
     1     -2.7211652     23  2.600                                             
     1     20.4087390     23  2.600                                             
     3     -1.3605826     23  2.500                                             
  local pseudopotential read in
  partial core-charges read in
  partial kinetic energy density read in
  atomic valenz-charges read in
  non local Contribution for L=           2  read in
    real space projection operators read in
  non local Contribution for L=           2  read in
    real space projection operators read in
  non local Contribution for L=           0  read in
    real space projection operators read in
  non local Contribution for L=           0  read in
    real space projection operators read in
  non local Contribution for L=           1  read in
    real space projection operators read in
  non local Contribution for L=           1  read in
    real space projection operators read in
    PAW grid and wavefunctions read in
 
   number of l-projection  operators is LMAX  =           6
   number of lm-projection operators is LMMAX =          18
 
 Optimization of the real space projectors (new method)

 maximal supplied QI-value         = 34.20
 optimisation between [QCUT,QGAM] = [  9.92, 20.18] = [ 27.55,114.04] Ry 
 Optimized for a Real-space Cutoff    1.26 Angstroem

   l    n(q)    QCUT    max X(q) W(low)/X(q) W(high)/X(q)  e(spline) 
   0      8     9.919    19.460    0.50E-03    0.23E-03    0.29E-06
   0      8     9.919    12.209    0.48E-03    0.23E-03    0.28E-06
   1      7     9.919     4.655    0.17E-03    0.75E-03    0.30E-06
 Optimization of the real space projectors (new method)

 maximal supplied QI-value         = 24.76
 optimisation between [QCUT,QGAM] = [ 10.15, 20.30] = [ 28.85,115.39] Ry 
 Optimized for a Real-space Cutoff    1.38 Angstroem

   l    n(q)    QCUT    max X(q) W(low)/X(q) W(high)/X(q)  e(spline) 
   0      8    10.150    20.381    0.22E-03    0.32E-03    0.29E-06
   0      8    10.150    15.268    0.23E-03    0.35E-03    0.30E-06
   1      8    10.150     5.964    0.46E-03    0.53E-03    0.21E-06
   1      8    10.150     5.382    0.38E-03    0.45E-03    0.19E-06
 Optimization of the real space projectors (new method)

 maximal supplied QI-value         = 14.36
 optimisation between [QCUT,QGAM] = [ 10.20, 20.39] = [ 29.12,116.47] Ry 
 Optimized for a Real-space Cutoff    1.51 Angstroem

   l    n(q)    QCUT    max X(q) W(low)/X(q) W(high)/X(q)  e(spline) 
   2      8    10.197    66.195    0.45E-03    0.45E-03    0.14E-06
   2      8    10.197    64.643    0.46E-03    0.46E-03    0.14E-06
   0      9    10.197    95.520    0.15E-03    0.11E-03    0.54E-07
   0      9    10.197    63.403    0.15E-03    0.11E-03    0.52E-07
   1      9    10.197    19.961    0.13E-03    0.17E-03    0.77E-07
   1      9    10.197    13.289    0.10E-03    0.15E-03    0.67E-07

 ----------------------------------------------------------------------------- 
|                                                                             |
|  ADVICE TO THIS USER RUNNING 'VASP/VAMP'   (HEAR YOUR MASTER'S VOICE ...):  |
|                                                                             |
|      You enforced a specific xc-type in the INCAR file,                     |
|      a different type was found on the POTCAR file                          |
|          I HOPE YOU KNOW, WHAT YOU ARE  DOING                               |
|                                                                             |
 ----------------------------------------------------------------------------- 

  PAW_PBE H 15Jun2001                   :
 energy of atom  1       EATOM=  -12.4884
 kinetic energy error for atom=    0.0098 (will be added to EATOM!!)
  PAW_PBE O 08Apr2002                   :
 energy of atom  2       EATOM= -432.3788
 kinetic energy error for atom=    0.1156 (will be added to EATOM!!)
  PAW_PBE Pt 04Feb2005                  :
 energy of atom  3       EATOM= -729.1176
 kinetic energy error for atom=    0.0056 (will be added to EATOM!!)
 
 
 POSCAR:  H  O Pt                                
  positions in cartesian coordinates
  No initial velocities read in
 exchange correlation table for  LEXCH =        9
   RHO(1)=    0.500       N(1)  =     2000
   RHO(2)=  100.500       N(2)  =     4000

 VTST: version 3.2, (02/03/18)

 CHAIN: initializing optimizer
 
 OPT: Using VASP Dynamics algorithm
 CHAIN: Read ICHAIN            0
 
 POSCAR:  H  O Pt                                
  positions in cartesian coordinates
  No initial velocities read in
 


--------------------------------------------------------------------------------------------------------


 ion  position               nearest neighbor table
   1  0.830  0.329  0.456-  52 1.00
   2  0.184  0.139  0.534-  49 0.98
   3  0.637  0.487  0.446-  50 0.99
   4  0.765  0.102  0.440-  62 1.00
   5  0.356  0.145  0.480-  63 1.00
   6  0.397  0.198  0.435-  63 0.98
   7  0.355  0.250  0.590-  56 0.96
   8  0.987  0.244  0.459-  52 0.97
   9  0.817  0.178  0.578-  57 0.95
  10  0.122  0.022  0.503-  49 0.98
  11  0.013  0.508  0.491-  55 1.05
  12  0.767  0.498  0.557-  54 0.95
  13  0.930  0.061  0.582-  57 0.96
  14  0.876  0.825  0.542-  67 0.96
  15  0.568  0.944  0.610-  66 1.00
  16  0.177  0.291  0.583-  56 0.98
  17  0.107  0.308  0.731-  53 0.97
  18  0.263  0.209  0.722-  53 0.98
  19  0.577  0.505  0.660-  58 1.01
  20  0.431  0.852  0.814-  45 0.81
  21  0.319  0.395  0.669-  71 0.99
  22  0.487  0.007  0.671-  59 0.99
  23  0.861  0.198  0.695-  60 0.99
  24  0.788  0.344  0.703-  60 0.98
  25  0.887  0.798  0.464-  64 0.98
  26  0.266  0.852  0.462-  61 0.97
  27  0.585  0.090  0.437-  62 0.99
  28  0.803  0.562  0.437-  50 0.99
  29  0.247  0.347  0.458-  51 0.98
  30  0.214  0.488  0.435-  51 0.98
  31  0.698  0.698  0.584-  68 1.03
  32  0.732  0.834  0.439-  64 0.99
  33  0.156  0.859  0.560-  69 0.96
  34  0.300  0.729  0.432-  61 0.98
  35  0.984  0.736  0.512-  67 0.99
  36  0.387  0.972  0.600-  66 1.00
  37  0.206  0.819  0.603-  69 0.97
  38  0.129  0.552  0.526-  55 0.97
  39  0.679  0.473  0.596-  54 0.98
  40  0.823  0.793  0.605-  68 0.98
  41  0.220  0.680  0.669-  65 0.95
  42  0.052  0.730  0.684-  65 0.98
  43  0.622  0.179  0.708-  70 1.01
  44  0.738  0.590  0.663-  58 0.97
  45  0.468  0.928  0.810-  20 0.81
  46  0.280  0.466  0.628-  71 0.98
  47  0.816  0.766  0.753-  72 0.98
  48  0.694  0.839  0.726-  72 0.99
  49  0.199  0.097  0.507-   2 0.98  10 0.98
  50  0.738  0.480  0.430-  28 0.99   3 0.99 105 2.39
  51  0.209  0.443  0.462-  29 0.98  30 0.98
  52  0.872  0.233  0.460-   8 0.97   1 1.00
  53  0.192  0.282  0.712-  17 0.97  18 0.98
  54  0.670  0.526  0.570-  12 0.95  39 0.98
  55  0.017  0.564  0.519-  38 0.97  11 1.05
  56  0.286  0.309  0.574-   7 0.96  16 0.98
  57  0.920  0.157  0.589-   9 0.95  13 0.96
  58  0.697  0.498  0.658-  44 0.97  19 1.01
  59  0.519  0.982  0.700-  22 0.99  70 1.58
  60  0.832  0.262  0.717-  24 0.98  23 0.99
  61  0.230  0.760  0.454-  26 0.97  34 0.98
  62  0.680  0.029  0.437-  27 0.99   4 1.00  99 2.54
  63  0.426  0.209  0.464-   6 0.98   5 1.00
  64  0.811  0.760  0.444-  25 0.98  32 0.99 108 2.66
  65  0.140  0.748  0.665-  41 0.95  42 0.98
  66  0.482  0.015  0.613-  15 1.00  36 1.00
  67  0.963  0.832  0.522-  14 0.96  35 0.99
  68  0.712  0.797  0.595-  40 0.98  31 1.03
  69  0.238  0.809  0.574-  33 0.96  37 0.97
  70  0.520  0.134  0.718-  43 1.01  59 1.58
  71  0.343  0.479  0.653-  46 0.98  21 0.99
  72  0.753  0.750  0.729-  47 0.98  48 0.99
  73  0.167  0.083  0.219-  74 2.78  77 2.78  83 2.78  82 2.78  76 2.78  75 2.78  94 2.78  86 2.78
                            85 2.78
  74  0.500  0.083  0.219-  73 2.78  75 2.78  77 2.78  78 2.78  83 2.78  84 2.78  95 2.78  87 2.78
                            86 2.78
  75  0.833  0.083  0.219-  74 2.78  78 2.78  84 2.78  82 2.78  76 2.78  73 2.78  96 2.78  87 2.78
                            85 2.78
  76  0.000  0.333  0.219-  77 2.78  78 2.78  73 2.78  75 2.78  79 2.78  81 2.78  85 2.78  88 2.78
                            90 2.78
  77  0.333  0.333  0.219-  76 2.78  73 2.78  79 2.78  74 2.78  80 2.78  78 2.78  86 2.78  88 2.78
                            89 2.78
  78  0.667  0.333  0.219-  76 2.78  75 2.78  81 2.78  80 2.78  74 2.78  77 2.78  87 2.78  90 2.78
                            89 2.78
  79  0.167  0.583  0.219-  80 2.78  77 2.78  83 2.78  82 2.78  76 2.78  81 2.78  88 2.78  92 2.78
                            91 2.78
  80  0.500  0.583  0.219-  79 2.78  81 2.78  77 2.78  78 2.78  83 2.78  84 2.78  89 2.78  92 2.78
                            93 2.78
  81  0.833  0.583  0.219-  80 2.78  78 2.78  84 2.78  82 2.78  76 2.78  79 2.78  90 2.78  93 2.78
                            91 2.78
  82  0.000  0.833  0.219-  83 2.78  84 2.78  79 2.78  81 2.78  73 2.78  75 2.78  91 2.78  94 2.78
                            96 2.78
  83  0.333  0.833  0.219-  82 2.78  79 2.78  73 2.78  80 2.78  74 2.78  84 2.78  92 2.78  94 2.78
                            95 2.78
  84  0.667  0.833  0.219-  82 2.78  81 2.78  75 2.78  74 2.78  80 2.78  83 2.78  93 2.78  96 2.78
                            95 2.78
  85  0.000  0.167  0.289-  86 2.78  87 2.78  88 2.78  90 2.78  94 2.78  96 2.78  76 2.78  75 2.78
                            73 2.78  97 2.80 102 2.85 100 2.92
  86  0.333  0.167  0.289-  85 2.78  88 2.78  94 2.78  89 2.78  95 2.78  87 2.78  77 2.78  73 2.78
                            74 2.78 101 2.85 100 2.90  98 2.95
  87  0.667  0.167  0.289-  99 2.77  85 2.78  96 2.78  90 2.78  89 2.78  95 2.78  86 2.78  78 2.78
                            75 2.78  74 2.78 101 2.85 102 2.87
  88  0.167  0.417  0.289-  89 2.78  86 2.78  92 2.78  91 2.78  85 2.78  90 2.78  79 2.78  77 2.78
                            76 2.78 103 2.85 100 2.86 104 2.91
  89  0.500  0.417  0.289-  88 2.78  90 2.78  86 2.78  87 2.78  92 2.78  93 2.78  80 2.78  78 2.78
                            77 2.78 105 2.79 101 2.81 104 2.92
  90  0.833  0.417  0.289-  89 2.78  87 2.78  93 2.78  91 2.78  85 2.78  88 2.78  81 2.78  78 2.78
                            76 2.78 102 2.84 103 2.85 105 2.86
  91  0.000  0.667  0.289-  92 2.78  93 2.78  88 2.78  90 2.78  94 2.78  96 2.78  82 2.78  81 2.78
                            79 2.78 103 2.83 106 2.87 108 2.89
  92  0.333  0.667  0.289-  91 2.78  88 2.78  94 2.78  89 2.78  95 2.78  93 2.78  83 2.78  79 2.78
                            80 2.78 107 2.83 104 2.86 106 2.88
  93  0.667  0.667  0.289-  91 2.78  90 2.78  96 2.78  95 2.78  89 2.78  92 2.78  84 2.78  81 2.78
                            80 2.78 105 2.81 107 2.87 108 2.87
  94  0.167  0.917  0.289-  95 2.78  92 2.78  86 2.78  85 2.78  91 2.78  96 2.78  73 2.78  83 2.78
                            82 2.78  97 2.81 106 2.83  98 3.01
  95  0.500  0.917  0.289- 107 2.78  96 2.78  94 2.78  93 2.78  86 2.78  87 2.78  92 2.78  74 2.78
                            84 2.78  83 2.78  99 2.82  98 2.99
  96  0.833  0.917  0.289-  95 2.78  93 2.78  87 2.78  85 2.78  91 2.78  94 2.78  75 2.78  84 2.78
                            82 2.78  99 2.81 108 2.88  97 2.89
  97  0.010  0.006  0.361-  98 2.73 106 2.73 100 2.76 102 2.79  85 2.80  94 2.81  99 2.85 108 2.87
                            96 2.89
  98  0.336  0.007  0.366-  97 2.73 107 2.74 101 2.76 100 2.78  99 2.79 106 2.81  86 2.95  95 2.99
                            94 3.01
  99  0.669  0.006  0.359-  62 2.54 102 2.76  87 2.77 101 2.78  98 2.79 107 2.79  96 2.81 108 2.81
                            95 2.82  97 2.85
 100  0.169  0.257  0.363- 101 2.76 103 2.76  97 2.76 104 2.77 102 2.78  98 2.78  88 2.86  86 2.90
                            85 2.92
 101  0.500  0.255  0.361- 105 2.72 100 2.76  98 2.76  99 2.78 104 2.80 102 2.81  89 2.81  87 2.85
                            86 2.85
 102  0.836  0.253  0.361-  99 2.76 103 2.77 100 2.78  97 2.79 101 2.81 105 2.83  90 2.84  85 2.85
                            87 2.87
 103  0.000  0.503  0.361- 100 2.76 102 2.77 108 2.77 104 2.78 106 2.80  91 2.83  88 2.85  90 2.85
                           105 2.86
 104  0.333  0.507  0.363- 105 2.71 107 2.77 100 2.77 106 2.78 103 2.78 101 2.80  92 2.86  88 2.91
                            89 2.92
 105  0.658  0.502  0.360-  50 2.39 104 2.71 101 2.72  89 2.79 108 2.80  93 2.81 107 2.82 102 2.83
                           103 2.86  90 2.86
 106  0.165  0.756  0.362-  97 2.73 107 2.75 104 2.78 108 2.78 103 2.80  98 2.81  94 2.83  91 2.87
                            92 2.88
 107  0.494  0.758  0.360-  98 2.74 106 2.75 104 2.77  95 2.78  99 2.79 108 2.82 105 2.82  92 2.83
                            93 2.87
 108  0.832  0.751  0.362-  64 2.66 103 2.77 106 2.78 105 2.80  99 2.81 107 2.82  97 2.87  93 2.87
                            96 2.88  91 2.89
 
  LATTYP: Found a simple orthorhombic cell.
 ALAT       =     8.3458886400
 B/A-ratio  =     1.1547005389
 C/A-ratio  =     3.8992763699
  
  Lattice vectors:
  
 A1 = (   8.3458886400,   0.0000000000,   0.0000000000)
 A2 = (   0.0000000000,   9.6370021100,   0.0000000000)
 A3 = (   0.0000000000,   0.0000000000,  32.5429263600)


Analysis of symmetry for initial positions (statically):
=====================================================================
 Subroutine PRICEL returns:
 Original cell was already a primitive cell.
 

 Routine SETGRP: Setting up the symmetry group for a 
 simple orthorhombic supercell.


 Subroutine GETGRP returns: Found  1 space group operations
 (whereof  1 operations were pure point group operations)
 out of a pool of  8 trial point group operations.


The static configuration has the point symmetry C_1 .


Analysis of symmetry for dynamics (positions and initial velocities):
=====================================================================
 Subroutine PRICEL returns:
 Original cell was already a primitive cell.
 

 Routine SETGRP: Setting up the symmetry group for a 
 simple orthorhombic supercell.


 Subroutine GETGRP returns: Found  1 space group operations
 (whereof  1 operations were pure point group operations)
 out of a pool of  8 trial point group operations.


The dynamic configuration has the point symmetry C_1 .


Analysis of constrained symmetry for selective dynamics:
=====================================================================
 Subroutine PRICEL returns:
 Original cell was already a primitive cell.
 

 Routine SETGRP: Setting up the symmetry group for a 
 simple orthorhombic supercell.


 Subroutine GETGRP returns: Found  1 space group operations
 (whereof  1 operations were pure point group operations)
 out of a pool of  8 trial point group operations.


The constrained configuration has the point symmetry C_1 .


 Subroutine INISYM returns: Found  1 space group operations
 (whereof  1 operations are pure point group operations),
 and found     1 'primitive' translations

 
 
 KPOINTS: automatic                               

Automatic generation of k-mesh.
Space group operators:
 irot       det(A)        alpha          n_x          n_y          n_z        tau_x        tau_y        tau_z
    1     1.000000     0.000001     1.000000     0.000000     0.000000     0.000000     0.000000     0.000000
 
 Subroutine IBZKPT returns following result:
 ===========================================
 
 Found      7 irreducible k-points:
 
 Following reciprocal coordinates:
            Coordinates               Weight
  0.000000  0.000000  0.000000      1.000000
  0.250000  0.000000  0.000000      2.000000
  0.500000  0.000000  0.000000      1.000000
  0.000000  0.333333  0.000000      2.000000
  0.250000  0.333333  0.000000      2.000000
  0.500000  0.333333  0.000000      2.000000
 -0.250000  0.333333  0.000000      2.000000
 
 Following cartesian coordinates:
            Coordinates               Weight
  0.000000  0.000000  0.000000      1.000000
  0.029955  0.000000  0.000000      2.000000
  0.059910  0.000000  0.000000      1.000000
  0.000000  0.034589  0.000000      2.000000
  0.029955  0.034589  0.000000      2.000000
  0.059910  0.034589  0.000000      2.000000
 -0.029955  0.034589  0.000000      2.000000
 


--------------------------------------------------------------------------------------------------------




 Dimension of arrays:
   k-points           NKPTS =      7   k-points in BZ     NKDIM =      7   number of bands    NBANDS=    331
   number of dos      NEDOS =    301   number of ions     NIONS =    108
   non local maximal  LDIM  =      6   non local SUM 2l+1 LMDIM =     18
   total plane-waves  NPLWV = 322560
   max r-space proj   IRMAX =   1822   max aug-charges    IRDMAX=   7663
   dimension x,y,z NGX =    42 NGY =   48 NGZ =  160
   dimension x,y,z NGXF=    84 NGYF=   96 NGZF=  320
   support grid    NGXF=    84 NGYF=   96 NGZF=  320
   ions per type =              48  24  36
   NGX,Y,Z   is equivalent  to a cutoff of   8.37,  8.28,  8.17 a.u.
   NGXF,Y,Z  is equivalent  to a cutoff of  16.73, 16.56, 16.35 a.u.

 SYSTEM =  CuH2O                                   
 POSCAR =   H  O Pt                                

 Startparameter for this run:
   NWRITE =      2    write-flag & timer
   PREC   = normal    normal or accurate (medium, high low for compatibility)
   ISTART =      0    job   : 0-new  1-cont  2-samecut
   ICHARG =      2    charge: 1-file 2-atom 10-const
   ISPIN  =      1    spin polarized calculation?
   LNONCOLLINEAR =      F non collinear calculations
   LSORBIT =      F    spin-orbit coupling
   INIWAV =      1    electr: 0-lowe 1-rand  2-diag
   LASPH  =      F    aspherical Exc in radial PAW
   METAGGA=      F    non-selfconsistent MetaGGA calc.

 Electronic Relaxation 1
   ENCUT  =  400.0 eV  29.40 Ry    5.42 a.u.  13.61 15.72 53.07*2*pi/ulx,y,z
   ENINI  =  400.0     initial cutoff
   ENAUG  =  605.4 eV  augmentation charge cutoff
   NELM   =    200;   NELMIN=  2; NELMDL= -5     # of ELM steps 
   EDIFF  = 0.1E-03   stopping-criterion for ELM
   LREAL  =      T    real-space projection
   NLSPLINE    = F    spline interpolate recip. space projectors
   LCOMPAT=      F    compatible to vasp.4.4
   GGA_COMPAT  = T    GGA compatible to vasp.4.4-vasp.4.6
   LMAXPAW     = -100 max onsite density
   LMAXMIX     =    2 max onsite mixed and CHGCAR
   VOSKOWN=      0    Vosko Wilk Nusair interpolation
   ROPT   =   -0.00050  -0.00050  -0.00050
 Ionic relaxation
   EDIFFG = 0.0E+00   stopping-criterion for IOM
   NSW    =      0    number of steps for IOM
   NBLOCK =      1;   KBLOCK =      1    inner block; outer block 
   IBRION =     -1    ionic relax: 0-MD 1-quasi-New 2-CG
   NFREE  =      0    steps in history (QN), initial steepest desc. (CG)
   ISIF   =      2    stress and relaxation
   IWAVPR =     10    prediction:  0-non 1-charg 2-wave 3-comb
   ISYM   =      2    0-nonsym 1-usesym 2-fastsym
   LCORR  =      T    Harris-Foulkes like correction to forces

   POTIM  = 0.5000    time-step for ionic-motion
   TEIN   =    0.0    initial temperature
   TEBEG  =    0.0;   TEEND  =   0.0 temperature during run
   SMASS  =  -3.00    Nose mass-parameter (am)
   estimated Nose-frequenzy (Omega)   =  0.10E-29 period in steps =****** mass=  -0.159E-26a.u.
   SCALEE = 1.0000    scale energy and forces
   NPACO  =    256;   APACO  = 16.0  distance and # of slots for P.C.
   PSTRESS=    0.0 pullay stress

  Mass of Ions in am
   POMASS =   1.00 16.00195.08
  Ionic Valenz
   ZVAL   =   1.00  6.00 10.00
  Atomic Wigner-Seitz radii
   RWIGS  =  -1.00 -1.00 -1.00
  virtual crystal weights 
   VCA    =   1.00  1.00  1.00
   NELECT =     552.0000    total number of electrons
   NUPDOWN=      -1.0000    fix difference up-down

 DOS related values:
   EMIN   =  10.00;   EMAX   =-10.00  energy-range for DOS
   EFERMI =   0.00
   ISMEAR =     0;   SIGMA  =   0.10  broadening in eV -4-tet -1-fermi 0-gaus

 Electronic relaxation 2 (details)
   IALGO  =     38    algorithm
   LDIAG  =      T    sub-space diagonalisation (order eigenvalues)
   LSUBROT=      F    optimize rotation matrix (better conditioning)
   TURBO    =      0    0=normal 1=particle mesh
   IRESTART =      0    0=no restart 2=restart with 2 vectors
   NREBOOT  =      0    no. of reboots
   NMIN     =      0    reboot dimension
   EREF     =   0.00    reference energy to select bands
   IMIX   =      4    mixing-type and parameters
     AMIX     =   0.40;   BMIX     =  1.00
     AMIX_MAG =   1.60;   BMIX_MAG =  1.00
     AMIN     =   0.10
     WC   =   100.;   INIMIX=   1;  MIXPRE=   1;  MAXMIX= -45

 Intra band minimization:
   WEIMIN = 0.0000     energy-eigenvalue tresh-hold
   EBREAK =  0.00E+00  absolut break condition
   DEPER  =   0.30     relativ break condition  

   TIME   =   0.40     timestep for ELM

  volume/ion in A,a.u.               =      24.24       163.55
  Fermi-wavevector in a.u.,A,eV,Ry     =   0.974460  1.841463 12.919723  0.949573
  Thomas-Fermi vector in A             =   2.104922
 
 Write flags
   LWAVE        =      F    write WAVECAR
   LDOWNSAMPLE  =      F    k-point downsampling of WAVECAR
   LCHARG       =      F    write CHGCAR
   LVTOT        =      F    write LOCPOT, total local potential
   LVHAR        =      T    write LOCPOT, Hartree potential only
   LELF         =      F    write electronic localiz. function (ELF)
   LORBIT       =      0    0 simple, 1 ext, 2 COOP (PROOUT), +10 PAW based schemes


 Dipole corrections
   LMONO  =      F    monopole corrections only (constant potential shift)
   LDIPOL =      T    correct potential (dipole corrections)
   IDIPOL =      3    1-x, 2-y, 3-z, 4-all directions 
   EPSILON=  1.0000000 bulk dielectric constant

 Exchange correlation treatment:
   GGA     =    RP    GGA type
   LEXCH   =     9    internal setting for exchange type
   VOSKOWN=      0    Vosko Wilk Nusair interpolation
   LHFCALC =     F    Hartree Fock is set to
   LHFONE  =     F    Hartree Fock one center treatment
   AEXX    =    0.0000 exact exchange contribution

 Linear response parameters
   LEPSILON=     F    determine dielectric tensor
   LRPA    =     F    only Hartree local field effects (RPA)
   LNABLA  =     F    use nabla operator in PAW spheres
   LVEL    =     F    velocity operator in full k-point grid
   LINTERFAST=   F  fast interpolation
   KINTER  =     0    interpolate to denser k-point grid
   CSHIFT  =0.1000    complex shift for real part using Kramers Kronig
   OMEGAMAX=  -1.0    maximum frequency
   DEG_THRESHOLD= 0.2000000E-02 threshold for treating states as degnerate
   RTIME   =   -0.100 relaxation time in fs
  (WPLASMAI=    0.000 imaginary part of plasma frequency in eV, 0.658/RTIME)
   DFIELD  = 0.0000000 0.0000000 0.0000000 field for delta impulse in time
 
 Orbital magnetization related:
   ORBITALMAG=     F  switch on orbital magnetization
   LCHIMAG   =     F  perturbation theory with respect to B field
   DQ        =  0.001000  dq finite difference perturbation B field
   LLRAUG    =     F  two centre corrections for induced B field



--------------------------------------------------------------------------------------------------------


 Static calculation
 charge density and potential will be updated during run
 non-spin polarized calculation
 Variant of blocked Davidson
 Davidson routine will perform the subspace rotation
 perform sub-space diagonalisation
    after iterative eigenvector-optimisation
 modified Broyden-mixing scheme, WC =      100.0
 initial mixing is a Kerker type mixing with AMIX =  0.4000 and BMIX =      1.0000
 Hartree-type preconditioning will be used
 using additional bands           55
 real space projection scheme for non local part
 use partial core corrections
 calculate Harris-corrections to forces 
   (improved forces if not selfconsistent)
 use gradient corrections 
 use of overlap-Matrix (Vanderbilt PP)
 Gauss-broadening in eV      SIGMA  =   0.10


--------------------------------------------------------------------------------------------------------


  energy-cutoff  :      400.00
  volume of cell :     2617.41
      direct lattice vectors                 reciprocal lattice vectors
     8.345888640  0.000000000  0.000000000     0.119819476  0.000000000  0.000000000
     0.000000000  9.637002110  0.000000000     0.000000000  0.103766710  0.000000000
     0.000000000  0.000000000 32.542926360     0.000000000  0.000000000  0.030728644

  length of vectors
     8.345888640  9.637002110 32.542926360     0.119819476  0.103766710  0.030728644


 
 k-points in units of 2pi/SCALE and weight: automatic                               
   0.00000000  0.00000000  0.00000000       0.083
   0.02995487  0.00000000  0.00000000       0.167
   0.05990974  0.00000000  0.00000000       0.083
   0.00000000  0.03458890  0.00000000       0.167
   0.02995487  0.03458890  0.00000000       0.167
   0.05990974  0.03458890  0.00000000       0.167
  -0.02995487  0.03458890  0.00000000       0.167
 
 k-points in reciprocal lattice and weights: automatic                               
   0.00000000  0.00000000  0.00000000       0.083
   0.25000000  0.00000000  0.00000000       0.167
   0.50000000  0.00000000  0.00000000       0.083
   0.00000000  0.33333333  0.00000000       0.167
   0.25000000  0.33333333  0.00000000       0.167
   0.50000000  0.33333333  0.00000000       0.167
  -0.25000000  0.33333333  0.00000000       0.167
 
 position of ions in fractional coordinates (direct lattice) 
   0.82987782  0.32893657  0.45626907
   0.18358552  0.13915953  0.53404626
   0.63749858  0.48722646  0.44630824
   0.76505479  0.10164196  0.44046232
   0.35559030  0.14464578  0.47968083
   0.39706373  0.19781595  0.43484001
   0.35486673  0.25048871  0.58975335
   0.98674522  0.24439557  0.45919843
   0.81728942  0.17846930  0.57774992
   0.12188353  0.02176257  0.50268372
   0.01328270  0.50779490  0.49130433
   0.76688814  0.49849788  0.55735146
   0.92950099  0.06074068  0.58183453
   0.87644820  0.82475833  0.54161484
   0.56791200  0.94382253  0.60964693
   0.17655779  0.29050858  0.58307598
   0.10723629  0.30753928  0.73063035
   0.26297113  0.20929135  0.72228877
   0.57678770  0.50471469  0.66041960
   0.43145067  0.85245248  0.81447282
   0.31852688  0.39539938  0.66916120
   0.48716086  0.00664387  0.67107255
   0.86079205  0.19792432  0.69457285
   0.78780883  0.34368172  0.70321726
   0.88687101  0.79772432  0.46395006
   0.26646632  0.85203031  0.46190029
   0.58499584  0.09016055  0.43742120
   0.80331425  0.56172203  0.43738646
   0.24678164  0.34736810  0.45777538
   0.21394966  0.48819187  0.43496350
   0.69822851  0.69755695  0.58379566
   0.73232810  0.83373308  0.43860562
   0.15645553  0.85869866  0.55985194
   0.29963182  0.72876961  0.43150231
   0.98386089  0.73642508  0.51181423
   0.38693224  0.97193514  0.59956836
   0.20575974  0.81904344  0.60297228
   0.12918582  0.55201164  0.52561380
   0.67930167  0.47320442  0.59601162
   0.82331105  0.79335963  0.60484938
   0.21956527  0.68014924  0.66874849
   0.05159259  0.73023500  0.68439287
   0.62209759  0.17882606  0.70762764
   0.73774371  0.59037316  0.66254328
   0.46847423  0.92833108  0.81031648
   0.28048723  0.46636380  0.62754882
   0.81640782  0.76578297  0.75333718
   0.69395958  0.83865880  0.72603719
   0.19910286  0.09743328  0.50696631
   0.73799912  0.47984270  0.43017420
   0.20918162  0.44253088  0.46189223
   0.87154636  0.23292252  0.46021623
   0.19181435  0.28236783  0.71160736
   0.67042290  0.52610544  0.57032257
   0.01710425  0.56399629  0.51879506
   0.28633383  0.30895456  0.57370380
   0.91975642  0.15733360  0.58874191
   0.69698959  0.49796240  0.65778934
   0.51914206  0.98176638  0.69955077
   0.83163009  0.26170834  0.71705586
   0.23025939  0.75990328  0.45407968
   0.68019277  0.02916295  0.43704695
   0.42637330  0.20880278  0.46394447
   0.81139458  0.75990551  0.44383707
   0.13951090  0.74845619  0.66502255
   0.48213239  0.01469457  0.61321159
   0.96320626  0.83179762  0.52216805
   0.71212222  0.79674098  0.59475071
   0.23795216  0.80889436  0.57433895
   0.52012228  0.13360900  0.71755281
   0.34281322  0.47883284  0.65282404
   0.75260371  0.74966499  0.72857479
   0.16666667  0.08333333  0.21910656
   0.50000000  0.08333333  0.21910656
   0.83333333  0.08333333  0.21910656
   0.00000000  0.33333333  0.21910656
   0.33333333  0.33333333  0.21910656
   0.66666667  0.33333333  0.21910656
   0.16666667  0.58333333  0.21910656
   0.50000000  0.58333333  0.21910656
   0.83333333  0.58333333  0.21910656
   0.00000000  0.83333333  0.21910656
   0.33333333  0.83333333  0.21910656
   0.66666667  0.83333333  0.21910656
   0.00000000  0.16666667  0.28890555
   0.33333333  0.16666667  0.28890555
   0.66666667  0.16666667  0.28890555
   0.16666667  0.41666667  0.28890555
   0.50000000  0.41666667  0.28890555
   0.83333333  0.41666667  0.28890555
   0.00000000  0.66666667  0.28890555
   0.33333333  0.66666667  0.28890555
   0.66666667  0.66666667  0.28890555
   0.16666667  0.91666667  0.28890555
   0.50000000  0.91666667  0.28890555
   0.83333333  0.91666667  0.28890555
   0.00988236  0.00559020  0.36056499
   0.33607073  0.00655748  0.36614563
   0.66893135  0.00583492  0.35933391
   0.16937191  0.25663271  0.36282662
   0.50007331  0.25483660  0.36073641
   0.83638093  0.25299764  0.36136653
   0.00016611  0.50285022  0.36107934
   0.33285016  0.50720068  0.36290396
   0.65766853  0.50221324  0.36009824
   0.16468228  0.75584069  0.36151038
   0.49423870  0.75842909  0.36034385
   0.83162384  0.75067490  0.36233011
 
 position of ions in cartesian coordinates  (Angst):
   6.92606787  3.16996242 14.84833075
   1.53218431  1.34108068 17.37942811
   5.32049216  4.69540242 14.52417619
   6.38506208  0.97952378 14.33393284
   2.96771705  1.39395169 15.61021793
   3.31384967  1.90635273 14.15096642
   2.96167821  2.41396023 19.19229984
   8.23526572  2.35524062 14.94366069
   6.82100649  1.71990902 18.80167310
   1.01722637  0.20972593 16.35879928
   0.11085594  4.89362052 15.98848063
   6.40036302  4.80402512 18.13784752
   7.75751175  0.58535806 18.93459826
   7.31473908  7.94819777 17.62573185
   4.73973031  9.09561971 19.83969515
   1.47353165  2.79963180 18.97499868
   0.89498213  2.96375669 23.77684968
   2.19472777  2.01694118 23.50539025
   4.81380591  4.86393653 21.49198641
   3.60083925  8.21508635 26.50532900
   2.65838987  3.81046466 21.77646365
   4.06579029  0.06402699 21.83866458
   7.18407459  1.90739709 22.60343311
   6.57496476  3.31206146 22.88474751
   7.40172669  7.68767096 15.09829264
   2.22389823  8.21101790 15.03158712
   4.88231014  0.86887741 14.23496590
   6.70437127  5.41331639 14.23383536
   2.05961209  3.34758711 14.89735048
   1.78560004  4.70470608 14.15498515
   5.82733739  6.72235780 18.99841917
   6.11192877  8.03468745 14.27351039
   1.30576043  8.27528080 18.21922046
   2.50069380  7.02315427 14.04234790
   8.21119343  7.09693005 16.65593280
   3.22929339  9.36654099 19.51170899
   1.71724788  7.89312336 19.62248251
   1.07817047  5.31973734 17.10501119
   5.66937609  4.56027199 19.39596226
   6.87126234  7.64560843 19.68356883
   1.83246729  6.55459966 21.76303286
   0.43058601  7.03727624 22.27214677
   5.19195721  1.72334712 23.02827418
   6.15712685  5.68942739 21.56109717
   3.90983375  8.94632858 26.37006954
   2.34091519  4.49434892 20.42227504
   6.81364875  7.37985210 24.51579637
   5.79170938  8.08215663 23.62737481
   1.66169030  0.93896472 16.49816729
   6.15925847  4.62424511 13.99912731
   1.74580651  4.26467102 15.03132483
   7.27382887  2.24467482 14.97678288
   1.60086120  2.72117937 23.15778591
   5.59527487  5.07007924 18.55996540
   0.14275017  5.43523344 16.88310943
   2.38971026  2.97739575 18.67000052
   7.67618466  1.51622424 19.15938462
   5.81699750  4.79886470 21.40639005
   4.33270182  9.46128468 22.76542919
   6.94069212  2.52208382 23.33509605
   1.92171923  7.32318951 14.77708159
   5.67681311  0.28104341 14.22278671
   3.55846408  2.01223283 15.09811072
   6.77180881  7.32321100 14.44375708
   1.16434244  7.21287388 21.64177987
   4.02382324  0.14161160 19.95569962
   8.03881218  8.01603542 16.99287640
   5.94329275  7.67819451 19.35492856
   1.98592223  7.79531665 18.69067016
   4.34088263  1.28759021 23.35126826
   2.86108096  4.61451309 21.24480466
   6.28114675  7.22452309 23.70995574
   1.39098147  0.80308348  7.13036865
   4.17294432  0.80308348  7.13036865
   6.95490717  0.80308348  7.13036865
   0.00000000  3.21233400  7.13036865
   2.78196285  3.21233400  7.13036865
   5.56392579  3.21233400  7.13036865
   1.39098147  5.62158453  7.13036865
   4.17294432  5.62158453  7.13036865
   6.95490717  5.62158453  7.13036865
   0.00000000  8.03083506  7.13036865
   2.78196285  8.03083506  7.13036865
   5.56392579  8.03083506  7.13036865
   0.00000000  1.60616705  9.40183204
   2.78196285  1.60616705  9.40183204
   5.56392579  1.60616705  9.40183204
   1.39098147  4.01541758  9.40183204
   4.17294432  4.01541758  9.40183204
   6.95490717  4.01541758  9.40183204
   0.00000000  6.42466811  9.40183204
   2.78196285  6.42466811  9.40183204
   5.56392579  6.42466811  9.40183204
   1.39098147  8.83391863  9.40183204
   4.17294432  8.83391863  9.40183204
   6.95490717  8.83391863  9.40183204
   0.08247708  0.05387277 11.73383992
   2.80480889  0.06319445 11.91545027
   5.58282655  0.05623114 11.69377697
   1.41355910  2.47316997 11.80743998
   4.17355616  2.45586085 11.73941843
   6.98034210  2.43813879 11.75992437
   0.00138634  4.84596863 11.75057837
   2.77793037  4.88789402 11.80995685
   5.48882831  4.83983005 11.71865051
   1.37441997  7.28403832 11.76460567
   4.12486115  7.30898274 11.72664337
   6.94063996  7.23425560 11.79128209
 


--------------------------------------------------------------------------------------------------------


 k-point  1 :   0.0000 0.0000 0.0000  plane waves:   47615
 k-point  2 :   0.2500 0.0000 0.0000  plane waves:   47511
 k-point  3 :   0.5000 0.0000 0.0000  plane waves:   47600
 k-point  4 :   0.0000 0.3333 0.0000  plane waves:   47504
 k-point  5 :   0.2500 0.3333 0.0000  plane waves:   47550
 k-point  6 :   0.5000 0.3333 0.0000  plane waves:   47452
 k-point  7 :  -0.2500 0.3333 0.0000  plane waves:   47550

 maximum and minimum number of plane-waves per node :      3000     2944

 maximum number of plane-waves:     47615
 maximum index in each direction: 
   IXMAX=   13   IYMAX=   15   IZMAX=   53
   IXMIN=  -14   IYMIN=  -16   IZMIN=  -53


 real space projection operators:
  total allocation   :      12655.90 KBytes
  max/ min on nodes  :        905.58        612.29


 parallel 3D FFT for wavefunctions:
    minimum data exchange during FFTs selected (reduces bandwidth)
 parallel 3D FFT for charge:
    minimum data exchange during FFTs selected (reduces bandwidth)


 total amount of memory used by VASP MPI-rank0   167313. kBytes
=======================================================================

   base      :      30000. kBytes
   nonlr-proj:       4419. kBytes
   fftplans  :       6719. kBytes
   grid      :      12775. kBytes
   one-center:        108. kBytes
   wavefun   :     113292. kBytes
 
     INWAV:  cpu time    0.0000: real time    0.0002
 Broyden mixing: mesh for mixing (old mesh)
   NGX = 27   NGY = 31   NGZ =107
  (NGX  = 84   NGY  = 96   NGZ  =320)
  gives a total of  89559 points

 initial charge density was supplied:
 charge density of overlapping atoms calculated
 number of electron     552.0000000 magnetization 
 keeping initial charge density in first step


--------------------------------------------------------------------------------------------------------


 Maximum index for non-local projection operator          177
 Maximum index for augmentation-charges          854 (set IRDMAX)


--------------------------------------------------------------------------------------------------------


 First call to EWALD:  gamma=   0.129
 Maximum number of real-space cells 4x 4x 1
 Maximum number of reciprocal cells 2x 2x 6

    FEWALD:  cpu time    0.0054: real time    0.0054


--------------------------------------- Iteration      1(   1)  ---------------------------------------


    POTLOK:  cpu time    0.1327: real time    0.1348
    SETDIJ:  cpu time    0.0148: real time    0.0148
     EDDAV:  cpu time   26.8458: real time   26.8786
       DOS:  cpu time    0.0063: real time    0.0063
    --------------------------------------------
      LOOP:  cpu time   26.9997: real time   27.0346

 eigenvalue-minimisations  :  4810
 total energy-change (2. order) : 0.3699462E+04  (-0.2128304E+05)
 number of electron     552.0000000 magnetization 
 augmentation part      552.0000000 magnetization 

 DIPCOR: dipole corrections for dipol
 direction  3 min pos     1,
 dipolmoment           0.000000      0.000000      0.000101 electrons x Angstroem
 Tr[quadrupol]     -7548.222062

 energy correction for charged system         0.000000 eV
 dipol+quadrupol energy correction           -0.000000 eV
 added-field ion interaction          0.013903 eV  (added to PSCEN)


 Free energy of the ion-electron system (eV)
  ---------------------------------------------------
  alpha Z        PSCENC =       863.60088798
  Ewald energy   TEWEN  =    206580.83505048
  -Hartree energ DENC   =   -243347.02539536
  -exchange      EXHF   =         0.00000000
  -V(xc)+E(xc)   XCENC  =       878.97726272
  PAW double counting   =     33505.36643195   -32489.60540758
  entropy T*S    EENTRO =        -0.13569811
  eigenvalues    EBANDS =       513.49698161
  atomic energy  EATOM  =     37193.95212048
  Solvation  Ediel_sol  =         0.00000000
  ---------------------------------------------------
  free energy    TOTEN  =      3699.46223418 eV

  energy without entropy =     3699.59793229  energy(sigma->0) =     3699.53008324


--------------------------------------------------------------------------------------------------------




--------------------------------------- Iteration      1(   2)  ---------------------------------------


     EDDAV:  cpu time   31.2476: real time   31.2872
       DOS:  cpu time    0.0067: real time    0.0067
    --------------------------------------------
      LOOP:  cpu time   31.2543: real time   31.2939

 eigenvalue-minimisations  :  5764
 total energy-change (2. order) :-0.3843169E+04  (-0.3647345E+04)
 number of electron     552.0000000 magnetization 
 augmentation part      552.0000000 magnetization 

 DIPCOR: dipole corrections for dipol
 direction  3 min pos     1,
 dipolmoment           0.000000      0.000000      0.000101 electrons x Angstroem
 Tr[quadrupol]     -7548.222062

 energy correction for charged system         0.000000 eV
 dipol+quadrupol energy correction           -0.000000 eV
 added-field ion interaction          0.013903 eV  (added to PSCEN)


 Free energy of the ion-electron system (eV)
  ---------------------------------------------------
  alpha Z        PSCENC =       863.60088798
  Ewald energy   TEWEN  =    206580.83505048
  -Hartree energ DENC   =   -243347.02539536
  -exchange      EXHF   =         0.00000000
  -V(xc)+E(xc)   XCENC  =       878.97726272
  PAW double counting   =     33505.36643195   -32489.60540758
  entropy T*S    EENTRO =        -0.19216355
  eigenvalues    EBANDS =     -3329.61544620
  atomic energy  EATOM  =     37193.95212048
  Solvation  Ediel_sol  =         0.00000000
  ---------------------------------------------------
  free energy    TOTEN  =      -143.70665907 eV

  energy without entropy =     -143.51449552  energy(sigma->0) =     -143.61057729


--------------------------------------------------------------------------------------------------------




--------------------------------------- Iteration      1(   3)  ---------------------------------------


     EDDAV:  cpu time   28.8968: real time   28.9319
       DOS:  cpu time    0.0068: real time    0.0068
    --------------------------------------------
      LOOP:  cpu time   28.9036: real time   28.9387

 eigenvalue-minimisations  :  5284
 total energy-change (2. order) :-0.4133593E+03  (-0.3991181E+03)
 number of electron     552.0000000 magnetization 
 augmentation part      552.0000000 magnetization 

 DIPCOR: dipole corrections for dipol
 direction  3 min pos     1,
 dipolmoment           0.000000      0.000000      0.000101 electrons x Angstroem
 Tr[quadrupol]     -7548.222062

 energy correction for charged system         0.000000 eV
 dipol+quadrupol energy correction           -0.000000 eV
 added-field ion interaction          0.013903 eV  (added to PSCEN)


 Free energy of the ion-electron system (eV)
  ---------------------------------------------------
  alpha Z        PSCENC =       863.60088798
  Ewald energy   TEWEN  =    206580.83505048
  -Hartree energ DENC   =   -243347.02539536
  -exchange      EXHF   =         0.00000000
  -V(xc)+E(xc)   XCENC  =       878.97726272
  PAW double counting   =     33505.36643195   -32489.60540758
  entropy T*S    EENTRO =        -0.25219772
  eigenvalues    EBANDS =     -3742.91471836
  atomic energy  EATOM  =     37193.95212048
  Solvation  Ediel_sol  =         0.00000000
  ---------------------------------------------------
  free energy    TOTEN  =      -557.06596540 eV

  energy without entropy =     -556.81376768  energy(sigma->0) =     -556.93986654


--------------------------------------------------------------------------------------------------------




--------------------------------------- Iteration      1(   4)  ---------------------------------------


     EDDAV:  cpu time   31.1676: real time   31.2068
       DOS:  cpu time    0.0070: real time    0.0070
    --------------------------------------------
      LOOP:  cpu time   31.1746: real time   31.2139

 eigenvalue-minimisations  :  5772
 total energy-change (2. order) :-0.1503050E+02  (-0.1386868E+02)
 number of electron     552.0000000 magnetization 
 augmentation part      552.0000000 magnetization 

 DIPCOR: dipole corrections for dipol
 direction  3 min pos     1,
 dipolmoment           0.000000      0.000000      0.000101 electrons x Angstroem
 Tr[quadrupol]     -7548.222062

 energy correction for charged system         0.000000 eV
 dipol+quadrupol energy correction           -0.000000 eV
 added-field ion interaction          0.013903 eV  (added to PSCEN)


 Free energy of the ion-electron system (eV)
  ---------------------------------------------------
  alpha Z        PSCENC =       863.60088798
  Ewald energy   TEWEN  =    206580.83505048
  -Hartree energ DENC   =   -243347.02539536
  -exchange      EXHF   =         0.00000000
  -V(xc)+E(xc)   XCENC  =       878.97726272
  PAW double counting   =     33505.36643195   -32489.60540758
  entropy T*S    EENTRO =        -0.27330972
  eigenvalues    EBANDS =     -3757.92410679
  atomic energy  EATOM  =     37193.95212048
  Solvation  Ediel_sol  =         0.00000000
  ---------------------------------------------------
  free energy    TOTEN  =      -572.09646583 eV

  energy without entropy =     -571.82315611  energy(sigma->0) =     -571.95981097


--------------------------------------------------------------------------------------------------------




--------------------------------------- Iteration      1(   5)  ---------------------------------------


     EDDAV:  cpu time   33.3019: real time   33.3424
       DOS:  cpu time    0.0071: real time    0.0071
    CHARGE:  cpu time    0.7866: real time    0.7873
    MIXING:  cpu time    0.0041: real time    0.0041
    --------------------------------------------
      LOOP:  cpu time   34.0996: real time   34.1408

 eigenvalue-minimisations  :  6268
 total energy-change (2. order) :-0.4561996E+00  (-0.4553099E+00)
 number of electron     552.0000429 magnetization 
 augmentation part      123.9720526 magnetization 

 DIPCOR: dipole corrections for dipol
 direction  3 min pos     1,
 dipolmoment           0.000000      0.000000      0.000101 electrons x Angstroem
 Tr[quadrupol]     -7548.222062

 energy correction for charged system         0.000000 eV
 dipol+quadrupol energy correction           -0.000000 eV
 added-field ion interaction          0.013903 eV  (added to PSCEN)


 Broyden mixing:
  rms(total) = 0.69332E+01    rms(broyden)= 0.69289E+01
  rms(prec ) = 0.70724E+01
  weight for this iteration     100.00

 Free energy of the ion-electron system (eV)
  ---------------------------------------------------
  alpha Z        PSCENC =       863.60088798
  Ewald energy   TEWEN  =    206580.83505048
  -Hartree energ DENC   =   -243347.02539536
  -exchange      EXHF   =         0.00000000
  -V(xc)+E(xc)   XCENC  =       878.97726272
  PAW double counting   =     33505.36643195   -32489.60540758
  entropy T*S    EENTRO =        -0.27382144
  eigenvalues    EBANDS =     -3758.37979469
  atomic energy  EATOM  =     37193.95212048
  Solvation  Ediel_sol  =         0.00000000
  ---------------------------------------------------
  free energy    TOTEN  =      -572.55266545 eV

  energy without entropy =     -572.27884401  energy(sigma->0) =     -572.41575473


--------------------------------------------------------------------------------------------------------




--------------------------------------- Iteration      1(   6)  ---------------------------------------


    POTLOK:  cpu time    0.1266: real time    0.1296
    SETDIJ:  cpu time    0.0151: real time    0.0151
     EDDAV:  cpu time   30.1360: real time   30.1723
       DOS:  cpu time    0.0067: real time    0.0067
    CHARGE:  cpu time    0.7776: real time    0.7784
    MIXING:  cpu time    0.0042: real time    0.0042
    --------------------------------------------
      LOOP:  cpu time   31.0662: real time   31.1064

 eigenvalue-minimisations  :  5521
 total energy-change (2. order) :-0.6109499E+02  (-0.3522441E+02)
 number of electron     552.0000528 magnetization 
 augmentation part      134.4361710 magnetization 

 DIPCOR: dipole corrections for dipol
 direction  3 min pos     1,
 dipolmoment           0.000000      0.000000      3.539548 electrons x Angstroem
 Tr[quadrupol]     -7552.737323

 energy correction for charged system         0.000000 eV
 dipol+quadrupol energy correction           -0.433072 eV
 added-field ion interaction        488.324040 eV  (added to PSCEN)


 Broyden mixing:
  rms(total) = 0.95539E+01    rms(broyden)= 0.95440E+01
  rms(prec ) = 0.12226E+02
  weight for this iteration     100.00

 eigenvalues of (default mixing * dielectric matrix)
  average eigenvalue GAMMA=   0.2991
  0.2991

 Free energy of the ion-electron system (eV)
  ---------------------------------------------------
  alpha Z        PSCENC =      1351.47795266
  Ewald energy   TEWEN  =    206580.83505048
  -Hartree energ DENC   =   -243145.31621808
  -exchange      EXHF   =         0.00000000
  -V(xc)+E(xc)   XCENC  =       900.66073215
  PAW double counting   =     38114.38750998   -37156.95489804
  entropy T*S    EENTRO =        -0.13956071
  eigenvalues    EBANDS =     -4472.55034650
  atomic energy  EATOM  =     37193.95212048
  Solvation  Ediel_sol  =         0.00000000
  ---------------------------------------------------
  free energy    TOTEN  =      -633.64765757 eV

  energy without entropy =     -633.50809686  energy(sigma->0) =     -633.57787722


--------------------------------------------------------------------------------------------------------




--------------------------------------- Iteration      1(   7)  ---------------------------------------


    POTLOK:  cpu time    0.1255: real time    0.1260
    SETDIJ:  cpu time    0.0151: real time    0.0151
     EDDAV:  cpu time   40.9552: real time   41.0039
       DOS:  cpu time    0.0064: real time    0.0064
    CHARGE:  cpu time    0.7870: real time    0.7879
    MIXING:  cpu time    0.0044: real time    0.0044
    --------------------------------------------
      LOOP:  cpu time   41.8936: real time   41.9437

 eigenvalue-minimisations  :  8017
 total energy-change (2. order) :-0.2243861E+03  (-0.2456316E+03)
 number of electron     552.0000434 magnetization 
 augmentation part       98.9628843 magnetization 

 DIPCOR: dipole corrections for dipol
 direction  3 min pos     1,
 dipolmoment           0.000000      0.000000     -6.470622 electrons x Angstroem
 Tr[quadrupol]     -7531.425935

 energy correction for charged system         0.000000 eV
 dipol+quadrupol energy correction           -1.447294 eV
 added-field ion interaction       -892.701540 eV  (added to PSCEN)


 Broyden mixing:
  rms(total) = 0.86088E+01    rms(broyden)= 0.86021E+01
  rms(prec ) = 0.18756E+02
  weight for this iteration     100.00

 eigenvalues of (default mixing * dielectric matrix)
  average eigenvalue GAMMA=   0.4847
  0.8342  0.1351

 Free energy of the ion-electron system (eV)
  ---------------------------------------------------
  alpha Z        PSCENC =       -30.56184907
  Ewald energy   TEWEN  =    206580.83505048
  -Hartree energ DENC   =   -244122.06756882
  -exchange      EXHF   =         0.00000000
  -V(xc)+E(xc)   XCENC  =       896.17260798
  PAW double counting   =     39017.43252728   -38060.47753030
  entropy T*S    EENTRO =        -0.25408593
  eigenvalues    EBANDS =     -2333.06500237
  atomic energy  EATOM  =     37193.95212048
  Solvation  Ediel_sol  =         0.00000000
  ---------------------------------------------------
  free energy    TOTEN  =      -858.03373027 eV

  energy without entropy =     -857.77964434  energy(sigma->0) =     -857.90668730


--------------------------------------------------------------------------------------------------------




--------------------------------------- Iteration      1(   8)  ---------------------------------------


    POTLOK:  cpu time    0.1264: real time    0.1304
    SETDIJ:  cpu time    0.0151: real time    0.0151
     EDDAV:  cpu time   39.0545: real time   39.1019
       DOS:  cpu time    0.0063: real time    0.0063
    CHARGE:  cpu time    0.7714: real time    0.7722
    MIXING:  cpu time    0.0045: real time    0.0045
    --------------------------------------------
      LOOP:  cpu time   39.9780: real time   40.0302

 eigenvalue-minimisations  :  7627
 total energy-change (2. order) : 0.1468226E+03  (-0.1069334E+04)
 number of electron     552.0000536 magnetization 
 augmentation part      131.5518699 magnetization 

 DIPCOR: dipole corrections for dipol
 direction  3 min pos     1,
 dipolmoment           0.000000      0.000000      9.756566 electrons x Angstroem
 Tr[quadrupol]     -7541.538720

 energy correction for charged system         0.000000 eV
 dipol+quadrupol energy correction           -3.290476 eV
 added-field ion interaction       1346.037768 eV  (added to PSCEN)


 Broyden mixing:
  rms(total) = 0.12945E+02    rms(broyden)= 0.12937E+02
  rms(prec ) = 0.16876E+02
  weight for this iteration     100.00

 eigenvalues of (default mixing * dielectric matrix)
  average eigenvalue GAMMA=   0.3224
  0.8252  0.1188  0.0233

 Free energy of the ion-electron system (eV)
  ---------------------------------------------------
  alpha Z        PSCENC =      2206.33427775
  Ewald energy   TEWEN  =    206580.83505048
  -Hartree energ DENC   =   -242660.84304617
  -exchange      EXHF   =         0.00000000
  -V(xc)+E(xc)   XCENC  =       887.42648358
  PAW double counting   =     39664.03860640   -38719.44206311
  entropy T*S    EENTRO =        -0.16294860
  eigenvalues    EBANDS =     -5863.34964577
  atomic energy  EATOM  =     37193.95212048
  Solvation  Ediel_sol  =         0.00000000
  ---------------------------------------------------
  free energy    TOTEN  =      -711.21116497 eV

  energy without entropy =     -711.04821637  energy(sigma->0) =     -711.12969067


--------------------------------------------------------------------------------------------------------




--------------------------------------- Iteration      1(   9)  ---------------------------------------


    POTLOK:  cpu time    0.1251: real time    0.1254
    SETDIJ:  cpu time    0.0150: real time    0.0151
     EDDAV:  cpu time   29.5929: real time   29.6296
       DOS:  cpu time    0.0065: real time    0.0065
    CHARGE:  cpu time    0.7791: real time    0.7798
    MIXING:  cpu time    0.0047: real time    0.0047
    --------------------------------------------
      LOOP:  cpu time   30.5234: real time   30.5611

 eigenvalue-minimisations  :  5428
 total energy-change (2. order) :-0.1617757E+03  (-0.1454112E+03)
 number of electron     552.0000581 magnetization 
 augmentation part      133.2993590 magnetization 

 DIPCOR: dipole corrections for dipol
 direction  3 min pos     1,
 dipolmoment           0.000000      0.000000      9.626314 electrons x Angstroem
 Tr[quadrupol]     -7544.752974

 energy correction for charged system         0.000000 eV
 dipol+quadrupol energy correction           -3.203205 eV
 added-field ion interaction       1328.067861 eV  (added to PSCEN)


 Broyden mixing:
  rms(total) = 0.13819E+02    rms(broyden)= 0.13818E+02
  rms(prec ) = 0.19306E+02
  weight for this iteration     100.00

 eigenvalues of (default mixing * dielectric matrix)
  average eigenvalue GAMMA=   0.2651
  0.7556  0.1542  0.1079  0.0428

 Free energy of the ion-electron system (eV)
  ---------------------------------------------------
  alpha Z        PSCENC =      2188.45164138
  Ewald energy   TEWEN  =    206580.83505048
  -Hartree energ DENC   =   -242705.47626307
  -exchange      EXHF   =         0.00000000
  -V(xc)+E(xc)   XCENC  =       889.36327504
  PAW double counting   =     39585.71411655   -38640.49434311
  entropy T*S    EENTRO =        -0.20898040
  eigenvalues    EBANDS =     -5965.12346882
  atomic energy  EATOM  =     37193.95212048
  Solvation  Ediel_sol  =         0.00000000
  ---------------------------------------------------
  free energy    TOTEN  =      -872.98685147 eV

  energy without entropy =     -872.77787107  energy(sigma->0) =     -872.88236127


--------------------------------------------------------------------------------------------------------




--------------------------------------- Iteration      1(  10)  ---------------------------------------


    POTLOK:  cpu time    0.1263: real time    0.1293
    SETDIJ:  cpu time    0.0151: real time    0.0151
     EDDAV:  cpu time   32.3332: real time   32.3721
       DOS:  cpu time    0.0068: real time    0.0068
    CHARGE:  cpu time    0.7811: real time    0.7820
    MIXING:  cpu time    0.0050: real time    0.0050
    --------------------------------------------
      LOOP:  cpu time   33.2675: real time   33.3102

 eigenvalue-minimisations  :  6036
 total energy-change (2. order) : 0.1857526E+03  (-0.2017079E+02)
 number of electron     552.0000573 magnetization 
 augmentation part      133.4785901 magnetization 

 DIPCOR: dipole corrections for dipol
 direction  3 min pos     1,
 dipolmoment           0.000000      0.000000      7.591828 electrons x Angstroem
 Tr[quadrupol]     -7521.602540

 energy correction for charged system         0.000000 eV
 dipol+quadrupol energy correction           -1.992313 eV
 added-field ion interaction       1047.385713 eV  (added to PSCEN)


 Broyden mixing:
  rms(total) = 0.99035E+01    rms(broyden)= 0.98992E+01
  rms(prec ) = 0.13180E+02
  weight for this iteration     100.00

 eigenvalues of (default mixing * dielectric matrix)
  average eigenvalue GAMMA=   0.3107
  0.8537  0.2232  0.2082  0.2082  0.0603

 Free energy of the ion-electron system (eV)
  ---------------------------------------------------
  alpha Z        PSCENC =      1908.98038539
  Ewald energy   TEWEN  =    206580.83505048
  -Hartree energ DENC   =   -242667.93671367
  -exchange      EXHF   =         0.00000000
  -V(xc)+E(xc)   XCENC  =       887.29719910
  PAW double counting   =     37490.29497053   -36545.70536738
  entropy T*S    EENTRO =        -0.17593113
  eigenvalues    EBANDS =     -5534.77591705
  atomic energy  EATOM  =     37193.95212048
  Solvation  Ediel_sol  =         0.00000000
  ---------------------------------------------------
  free energy    TOTEN  =      -687.23420326 eV

  energy without entropy =     -687.05827213  energy(sigma->0) =     -687.14623769


--------------------------------------------------------------------------------------------------------




--------------------------------------- Iteration      1(  11)  ---------------------------------------


    POTLOK:  cpu time    0.1270: real time    0.1273
    SETDIJ:  cpu time    0.0150: real time    0.0150
     EDDAV:  cpu time   30.9143: real time   30.9518
       DOS:  cpu time    0.0070: real time    0.0070
    CHARGE:  cpu time    0.7723: real time    0.7731
    MIXING:  cpu time    0.0051: real time    0.0051
    --------------------------------------------
      LOOP:  cpu time   31.8406: real time   31.8791

 eigenvalue-minimisations  :  5756
 total energy-change (2. order) : 0.3383673E+02  (-0.1042307E+02)
 number of electron     552.0000450 magnetization 
 augmentation part      135.3317671 magnetization 

 DIPCOR: dipole corrections for dipol
 direction  3 min pos     1,
 dipolmoment           0.000000      0.000000      7.827732 electrons x Angstroem
 Tr[quadrupol]     -7516.029201

 energy correction for charged system         0.000000 eV
 dipol+quadrupol energy correction           -2.118052 eV
 added-field ion interaction       1079.931456 eV  (added to PSCEN)


 Broyden mixing:
  rms(total) = 0.88555E+01    rms(broyden)= 0.88477E+01
  rms(prec ) = 0.11991E+02
  weight for this iteration     100.00

 eigenvalues of (default mixing * dielectric matrix)
  average eigenvalue GAMMA=   0.3457
  0.9350  0.2755  0.3190  0.3190  0.1675  0.0584

 Free energy of the ion-electron system (eV)
  ---------------------------------------------------
  alpha Z        PSCENC =      1941.40038905
  Ewald energy   TEWEN  =    206580.83505048
  -Hartree energ DENC   =   -242688.29498044
  -exchange      EXHF   =         0.00000000
  -V(xc)+E(xc)   XCENC  =       886.50061965
  PAW double counting   =     35806.07054409   -34867.04337049
  entropy T*S    EENTRO =        -0.17816523
  eigenvalues    EBANDS =     -5506.63968399
  atomic energy  EATOM  =     37193.95212048
  Solvation  Ediel_sol  =         0.00000000
  ---------------------------------------------------
  free energy    TOTEN  =      -653.39747640 eV

  energy without entropy =     -653.21931117  energy(sigma->0) =     -653.30839379


--------------------------------------------------------------------------------------------------------




--------------------------------------- Iteration      1(  12)  ---------------------------------------


    POTLOK:  cpu time    0.1258: real time    0.1291
    SETDIJ:  cpu time    0.0149: real time    0.0149
     EDDAV:  cpu time   31.0930: real time   31.1313
       DOS:  cpu time    0.0071: real time    0.0071
    CHARGE:  cpu time    0.7755: real time    0.7764
    MIXING:  cpu time    0.0053: real time    0.0053
    --------------------------------------------
      LOOP:  cpu time   32.0216: real time   32.0640

 eigenvalue-minimisations  :  5780
 total energy-change (2. order) : 0.5904590E+02  (-0.9811500E+01)
 number of electron     552.0000410 magnetization 
 augmentation part      132.2750567 magnetization 

 DIPCOR: dipole corrections for dipol
 direction  3 min pos     1,
 dipolmoment           0.000000      0.000000      8.538599 electrons x Angstroem
 Tr[quadrupol]     -7503.939030

 energy correction for charged system         0.000000 eV
 dipol+quadrupol energy correction           -2.520217 eV
 added-field ion interaction       1178.004313 eV  (added to PSCEN)


 Broyden mixing:
  rms(total) = 0.68358E+01    rms(broyden)= 0.68218E+01
  rms(prec ) = 0.85008E+01
  weight for this iteration     100.00

 eigenvalues of (default mixing * dielectric matrix)
  average eigenvalue GAMMA=   0.3815
  1.1437  0.2918  0.3946  0.3946  0.2044  0.1831  0.0586

 Free energy of the ion-electron system (eV)
  ---------------------------------------------------
  alpha Z        PSCENC =      2039.07108062
  Ewald energy   TEWEN  =    206580.83505048
  -Hartree energ DENC   =   -242842.00148030
  -exchange      EXHF   =         0.00000000
  -V(xc)+E(xc)   XCENC  =       886.52896497
  PAW double counting   =     34727.12252012   -33791.73126618
  entropy T*S    EENTRO =        -0.29608076
  eigenvalues    EBANDS =     -5387.83248184
  atomic energy  EATOM  =     37193.95212048
  Solvation  Ediel_sol  =         0.00000000
  ---------------------------------------------------
  free energy    TOTEN  =      -594.35157241 eV

  energy without entropy =     -594.05549165  energy(sigma->0) =     -594.20353203


--------------------------------------------------------------------------------------------------------




--------------------------------------- Iteration      1(  13)  ---------------------------------------


    POTLOK:  cpu time    0.1254: real time    0.1258
    SETDIJ:  cpu time    0.0149: real time    0.0149
     EDDAV:  cpu time   30.6088: real time   30.6464
       DOS:  cpu time    0.0072: real time    0.0072
    CHARGE:  cpu time    0.7865: real time    0.7872
    MIXING:  cpu time    0.0056: real time    0.0056
    --------------------------------------------
      LOOP:  cpu time   31.5484: real time   31.5871

 eigenvalue-minimisations  :  5668
 total energy-change (2. order) : 0.3207180E+02  (-0.7789262E+01)
 number of electron     552.0000490 magnetization 
 augmentation part      129.7820462 magnetization 

 DIPCOR: dipole corrections for dipol
 direction  3 min pos     1,
 dipolmoment           0.000000      0.000000      7.906581 electrons x Angstroem
 Tr[quadrupol]     -7498.389169

 energy correction for charged system         0.000000 eV
 dipol+quadrupol energy correction           -2.160938 eV
 added-field ion interaction       1090.809734 eV  (added to PSCEN)


 Broyden mixing:
  rms(total) = 0.50778E+01    rms(broyden)= 0.50615E+01
  rms(prec ) = 0.55857E+01
  weight for this iteration     100.00

 eigenvalues of (default mixing * dielectric matrix)
  average eigenvalue GAMMA=   0.4320
  1.5104  0.2962  0.4885  0.4885  0.0586  0.2243  0.2243  0.1655

 Free energy of the ion-electron system (eV)
  ---------------------------------------------------
  alpha Z        PSCENC =      1952.23578139
  Ewald energy   TEWEN  =    206580.83505048
  -Hartree energ DENC   =   -242985.23954269
  -exchange      EXHF   =         0.00000000
  -V(xc)+E(xc)   XCENC  =       887.34782443
  PAW double counting   =     34461.97984995   -33532.24198208
  entropy T*S    EENTRO =        -0.30700879
  eigenvalues    EBANDS =     -5120.84186940
  atomic energy  EATOM  =     37193.95212048
  Solvation  Ediel_sol  =         0.00000000
  ---------------------------------------------------
  free energy    TOTEN  =      -562.27977622 eV

  energy without entropy =     -561.97276743  energy(sigma->0) =     -562.12627182


--------------------------------------------------------------------------------------------------------




--------------------------------------- Iteration      1(  14)  ---------------------------------------


    POTLOK:  cpu time    0.1262: real time    0.1293
    SETDIJ:  cpu time    0.0148: real time    0.0150
     EDDAV:  cpu time   29.1291: real time   29.1653
       DOS:  cpu time    0.0068: real time    0.0068
    CHARGE:  cpu time    0.7874: real time    0.7881
    MIXING:  cpu time    0.0059: real time    0.0059
    --------------------------------------------
      LOOP:  cpu time   30.0702: real time   30.1103

 eigenvalue-minimisations  :  5332
 total energy-change (2. order) : 0.9155760E+01  (-0.4009200E+01)
 number of electron     552.0000355 magnetization 
 augmentation part      128.2062936 magnetization 

 DIPCOR: dipole corrections for dipol
 direction  3 min pos     1,
 dipolmoment           0.000000      0.000000      7.028352 electrons x Angstroem
 Tr[quadrupol]     -7482.475088

 energy correction for charged system         0.000000 eV
 dipol+quadrupol energy correction           -1.707544 eV
 added-field ion interaction        969.647256 eV  (added to PSCEN)


 Broyden mixing:
  rms(total) = 0.49482E+01    rms(broyden)= 0.49414E+01
  rms(prec ) = 0.51630E+01
  weight for this iteration     100.00

 eigenvalues of (default mixing * dielectric matrix)
  average eigenvalue GAMMA=   0.4415
  1.7578  0.2972  0.4872  0.4872  0.0586  0.2906  0.2139  0.2139  0.1668

 Free energy of the ion-electron system (eV)
  ---------------------------------------------------
  alpha Z        PSCENC =      1831.52669796
  Ewald energy   TEWEN  =    206580.83505048
  -Hartree energ DENC   =   -242985.66114532
  -exchange      EXHF   =         0.00000000
  -V(xc)+E(xc)   XCENC  =       890.22895583
  PAW double counting   =     34750.22590236   -33827.45989032
  entropy T*S    EENTRO =        -0.45390069
  eigenvalues    EBANDS =     -4986.31780656
  atomic energy  EATOM  =     37193.95212048
  Solvation  Ediel_sol  =         0.00000000
  ---------------------------------------------------
  free energy    TOTEN  =      -553.12401576 eV

  energy without entropy =     -552.67011508  energy(sigma->0) =     -552.89706542


--------------------------------------------------------------------------------------------------------




--------------------------------------- Iteration      1(  15)  ---------------------------------------


    POTLOK:  cpu time    0.1260: real time    0.1265
    SETDIJ:  cpu time    0.0149: real time    0.0149
     EDDAV:  cpu time   30.5954: real time   30.6335
       DOS:  cpu time    0.0068: real time    0.0068
    CHARGE:  cpu time    0.7852: real time    0.7858
    MIXING:  cpu time    0.0060: real time    0.0060
    --------------------------------------------
      LOOP:  cpu time   31.5343: real time   31.5736

 eigenvalue-minimisations  :  5644
 total energy-change (2. order) :-0.7235234E+00  (-0.5027282E+01)
 number of electron     552.0000419 magnetization 
 augmentation part      126.6150004 magnetization 

 DIPCOR: dipole corrections for dipol
 direction  3 min pos     1,
 dipolmoment           0.000000      0.000000      6.084852 electrons x Angstroem
 Tr[quadrupol]     -7483.035933

 energy correction for charged system         0.000000 eV
 dipol+quadrupol energy correction           -1.279867 eV
 added-field ion interaction        839.479904 eV  (added to PSCEN)


 Broyden mixing:
  rms(total) = 0.43620E+01    rms(broyden)= 0.43589E+01
  rms(prec ) = 0.45351E+01
  weight for this iteration     100.00

 eigenvalues of (default mixing * dielectric matrix)
  average eigenvalue GAMMA=   0.4691
  1.9259  0.2976  0.5599  0.5599  0.3534  0.3534  0.0586  0.2097  0.2097  0.1633

 Free energy of the ion-electron system (eV)
  ---------------------------------------------------
  alpha Z        PSCENC =      1701.78702204
  Ewald energy   TEWEN  =    206580.83505048
  -Hartree energ DENC   =   -243221.31058862
  -exchange      EXHF   =         0.00000000
  -V(xc)+E(xc)   XCENC  =       891.60538286
  PAW double counting   =     34856.26659993   -33938.29489337
  entropy T*S    EENTRO =        -0.33429972
  eigenvalues    EBANDS =     -4618.35393329
  atomic energy  EATOM  =     37193.95212048
  Solvation  Ediel_sol  =         0.00000000
[...]
   0.462E+02 0.187E+01 -.111E+03   -.500E+02 -.271E+01 0.104E+03   0.423E+01 0.823E+00 0.691E+01   0.556E-02 0.114E-03 0.159E-01
   -.514E+02 -.828E+01 -.211E+03   0.558E+02 0.917E+01 0.218E+03   -.446E+01 -.111E+01 -.667E+01   -.157E-02 -.942E-03 -.387E-02
   0.286E+02 -.559E+02 -.153E+03   -.326E+02 0.621E+02 0.152E+03   0.402E+01 -.672E+01 0.838E+00   0.363E-02 -.442E-02 0.215E-02
   -.267E+02 0.135E+02 -.106E+04   0.535E+02 -.108E+01 0.103E+04   -.273E+02 -.130E+02 0.267E+02   0.746E-03 0.988E-02 0.475E-02
   0.408E+02 0.239E+02 -.104E+04   -.292E+02 -.543E+02 0.102E+04   -.122E+02 0.302E+02 0.255E+02   -.110E-01 -.444E-03 -.276E-01
   -.409E+02 -.271E+02 -.109E+04   0.316E+02 0.455E+02 0.113E+04   0.884E+01 -.183E+02 -.368E+02   0.914E-02 -.231E-02 -.276E-01
   0.156E+02 0.463E+02 -.112E+04   -.391E+02 -.795E+02 0.113E+04   0.234E+02 0.339E+02 -.742E+01   -.814E-02 0.698E-02 -.214E-01
   0.244E+02 -.183E+02 -.945E+03   -.195E+02 0.346E+02 0.907E+03   -.420E+01 -.164E+02 0.379E+02   0.992E-03 0.837E-02 -.950E-04
   0.799E+02 0.249E+02 -.991E+03   -.118E+03 0.642E+00 0.977E+03   0.371E+02 -.255E+02 0.147E+02   -.644E-02 0.468E-02 0.339E-01
   0.417E+02 0.437E+02 -.115E+04   -.745E+02 -.267E+02 0.117E+04   0.319E+02 -.185E+02 -.200E+02   -.116E-01 -.714E-02 0.195E-01
   -.352E+02 -.540E+02 -.103E+04   0.478E+02 0.854E+02 0.100E+04   -.136E+02 -.309E+02 0.344E+02   0.698E-02 0.152E-01 0.463E-01
   -.831E+01 -.501E+02 -.112E+04   0.402E+02 0.791E+02 0.115E+04   -.308E+02 -.289E+02 -.242E+02   -.245E-02 0.142E-01 0.529E-01
   -.591E+02 0.453E+02 -.104E+04   0.789E+02 -.823E+02 0.104E+04   -.209E+02 0.362E+02 0.844E+01   0.293E-04 -.526E-02 0.394E-01
   0.173E+02 0.174E+03 -.989E+03   -.110E+02 -.205E+03 0.101E+04   -.596E+01 0.330E+02 -.243E+02   0.122E-02 0.126E-02 0.231E-01
   -.502E+02 -.128E+01 -.102E+04   0.563E+02 -.492E+01 0.107E+04   -.636E+01 0.578E+01 -.462E+02   0.624E-02 -.379E-03 0.166E-02
   -.383E+02 0.279E+01 -.107E+04   0.461E+01 -.277E+02 0.109E+04   0.335E+02 0.248E+02 -.173E+02   0.103E-01 -.621E-02 -.288E-01
   0.235E+02 0.824E+02 -.108E+04   -.196E+02 -.122E+03 0.108E+04   -.399E+01 0.400E+02 -.175E+01   -.887E-02 0.107E-01 -.226E-01
   -.765E+02 -.409E+02 -.111E+04   0.105E+03 0.672E+02 0.113E+04   -.285E+02 -.264E+02 -.187E+02   -.127E-02 0.600E-02 -.275E-01
   0.424E+02 0.279E+02 -.104E+04   -.427E+02 -.642E+02 0.102E+04   0.156E+00 0.360E+02 0.156E+02   -.407E-02 -.564E-02 -.609E-02
   0.241E+02 -.569E+02 -.105E+04   -.241E+02 0.921E+02 0.102E+04   -.164E+01 -.338E+02 0.281E+02   -.880E-02 -.132E-01 0.532E-01
   -.695E+01 -.792E+02 -.103E+04   0.103E+02 0.117E+03 0.105E+04   -.368E+01 -.382E+02 -.168E+02   0.542E-02 0.667E-02 0.511E-01
   0.206E+02 -.966E+02 -.107E+04   0.124E+01 0.129E+03 0.106E+04   -.213E+02 -.312E+02 0.125E+02   -.146E-01 -.720E-02 0.993E-02
   0.377E+02 -.618E+02 -.107E+04   -.685E+02 0.896E+02 0.107E+04   0.317E+02 -.285E+02 0.105E+01   -.231E-02 -.133E-01 0.449E-01
   -.909E+02 0.530E+02 -.106E+04   0.128E+03 -.785E+02 0.104E+04   -.362E+02 0.255E+02 0.186E+02   0.153E-01 -.165E-01 0.301E-01
   0.449E+02 -.110E+03 -.105E+04   -.753E+02 0.118E+03 0.107E+04   0.302E+02 -.929E+01 -.255E+02   0.320E-02 0.220E-01 0.233E-01
   -.481E+01 -.579E+02 -.105E+04   0.296E+02 0.908E+02 0.106E+04   -.248E+02 -.329E+02 -.113E+02   0.719E-02 -.779E-02 0.435E-01
   -.281E+02 0.638E+02 -.919E+03   0.239E+02 -.101E+03 0.892E+03   0.429E+01 0.379E+02 0.274E+02   0.588E-02 -.459E-02 0.743E-02
   -.111E+01 0.546E+00 0.274E+04   0.109E+01 -.688E+00 -.274E+04   0.265E-01 0.979E-01 -.116E+01   0.264E-02 0.674E-01 -.212E-01
   0.231E+01 0.859E+00 0.274E+04   -.237E+01 -.958E+00 -.274E+04   0.582E-01 -.181E-02 -.105E+01   -.195E-01 0.425E-01 -.141E-01
   -.126E+01 0.689E+00 0.274E+04   0.129E+01 -.807E+00 -.274E+04   -.689E-01 -.101E-01 -.108E+01   0.170E-01 0.717E-01 -.370E-01
   -.187E+01 0.492E+00 0.274E+04   0.183E+01 -.554E+00 -.274E+04   0.683E-02 0.267E-02 -.108E+01   0.259E-01 -.816E-03 0.652E-02
   0.151E+01 0.889E+00 0.274E+04   -.131E+01 -.780E+00 -.274E+04   -.111E+00 -.699E-01 -.125E+01   -.263E-01 0.155E-01 0.189E-01
   0.546E+00 0.126E+00 0.274E+04   -.513E+00 -.333E+00 -.274E+04   0.433E-02 0.930E-01 -.110E+01   0.338E-03 0.454E-02 -.251E-02
   -.563E+00 -.554E+00 0.274E+04   0.516E+00 0.597E+00 -.274E+04   0.228E-01 0.525E-01 -.115E+01   0.262E-01 -.696E-01 0.175E-01
   0.146E+01 -.753E+00 0.274E+04   -.146E+01 0.858E+00 -.274E+04   0.524E-01 -.761E-01 -.110E+01   -.359E-01 -.476E-01 0.221E-01
   -.833E+00 -.962E+00 0.274E+04   0.940E+00 0.987E+00 -.274E+04   -.105E+00 0.125E-01 -.105E+01   0.974E-02 -.720E-01 -.154E-01
   -.163E+01 -.470E+00 0.274E+04   0.144E+01 0.457E+00 -.274E+04   0.782E-01 -.226E-01 -.111E+01   0.287E-01 0.231E-02 -.417E-01
   0.103E+01 -.923E+00 0.274E+04   -.955E+00 0.105E+01 -.274E+04   -.550E-01 -.582E-01 -.121E+01   0.358E-02 -.139E-01 0.246E-02
   0.573E+00 -.391E+00 0.274E+04   -.497E+00 0.186E+00 -.274E+04   -.586E-02 0.112E+00 -.107E+01   -.325E-01 0.336E-04 -.239E-01
   -.112E+02 0.552E+00 0.919E+03   0.112E+02 -.620E+00 -.919E+03   0.110E-01 0.975E-01 0.544E+00   0.300E-01 0.822E-01 -.706E-01
   0.885E+01 0.103E+02 0.908E+03   -.891E+01 -.105E+02 -.908E+03   -.158E-01 -.522E-01 0.898E+00   -.779E-02 0.657E-01 -.445E-01
   0.250E+01 -.515E+00 0.933E+03   -.252E+01 0.423E+00 -.933E+03   0.489E-01 0.262E+00 0.179E+00   -.225E-01 0.557E-01 -.407E-01
   -.550E+01 0.190E+01 0.916E+03   0.550E+01 -.202E+01 -.916E+03   0.925E-02 0.858E-01 0.706E+00   0.357E-01 -.274E-02 -.523E-01
   0.131E+02 -.109E+01 0.929E+03   -.129E+02 0.117E+01 -.929E+03   -.214E+00 0.909E-02 0.264E+00   -.493E-01 0.116E-01 -.264E-01
   -.542E+01 -.605E+00 0.929E+03   0.549E+01 0.674E+00 -.929E+03   0.382E-01 -.400E-01 0.418E+00   0.135E-01 -.216E-01 -.529E-01
   -.389E+01 -.526E+01 0.920E+03   0.387E+01 0.533E+01 -.920E+03   -.107E-01 0.386E-01 0.515E+00   0.534E-01 -.875E-01 -.382E-01
   0.476E+01 -.128E+01 0.917E+03   -.482E+01 0.126E+01 -.917E+03   -.486E-01 0.217E-01 0.599E+00   0.159E-01 -.658E-01 -.221E-01
   0.264E-01 -.707E+01 0.924E+03   0.819E-01 0.708E+01 -.923E+03   -.319E-01 0.182E+00 0.345E+00   -.693E-01 -.567E-01 -.172E-01
   -.112E+02 -.501E+01 0.910E+03   0.112E+02 0.495E+01 -.910E+03   0.147E+00 0.102E+00 0.617E+00   0.602E-01 0.774E-02 -.437E-01
   0.158E+02 -.390E+01 0.917E+03   -.158E+02 0.396E+01 -.917E+03   -.168E+00 0.904E-01 0.421E+00   -.374E-01 -.160E-01 -.185E-01
   -.764E+01 0.547E+01 0.920E+03   0.765E+01 -.544E+01 -.920E+03   0.155E+00 -.828E-01 0.361E+00   -.231E-01 0.269E-01 -.333E-01
   -.115E+02 0.534E+01 -.886E+03   0.123E+02 -.513E+01 0.885E+03   -.115E+01 -.241E+00 0.571E+00   0.107E-01 0.327E-01 -.246E-01
   0.197E+02 0.137E+02 -.988E+03   -.199E+02 -.134E+02 0.988E+03   0.733E-01 -.248E+00 -.245E+00   0.310E-01 0.168E-01 -.408E-01
   0.416E+01 0.251E+02 -.787E+03   -.436E+01 -.252E+02 0.785E+03   0.228E+00 -.110E+00 0.291E+01   -.416E-01 0.168E-01 -.251E-01
   -.212E+01 0.187E+02 -.910E+03   0.220E+01 -.187E+02 0.910E+03   -.101E+00 -.166E+00 0.164E-01   0.331E-01 0.472E-01 -.694E-01
   0.215E+02 -.217E+01 -.854E+03   -.219E+02 0.215E+01 0.854E+03   0.211E+00 -.948E-01 -.675E-01   -.187E-01 0.397E-01 -.513E-01
   -.190E+02 0.110E+02 -.851E+03   0.196E+02 -.112E+02 0.850E+03   -.406E+00 0.175E+00 0.123E+01   -.137E-01 0.309E-01 -.498E-01
   -.236E+02 -.469E+01 -.852E+03   0.241E+02 0.464E+01 0.852E+03   -.391E+00 0.162E+00 0.325E+00   0.294E-01 -.324E-01 -.602E-01
   -.400E+01 -.826E+01 -.918E+03   0.375E+01 0.847E+01 0.918E+03   -.416E-01 -.322E+00 -.372E+00   0.174E-01 -.186E-01 -.827E-01
   0.290E+02 -.209E+02 -.798E+03   -.302E+02 0.210E+02 0.796E+03   0.168E+01 0.286E-01 0.280E+01   -.475E-01 -.203E-01 -.541E-01
   -.628E+01 -.112E+02 -.876E+03   0.620E+01 0.115E+02 0.875E+03   0.221E-01 -.146E+00 0.972E+00   0.530E-01 -.465E-01 -.443E-01
   0.536E+01 0.254E+01 -.891E+03   -.586E+01 -.219E+01 0.891E+03   0.667E+00 -.483E+00 0.176E+00   -.196E-01 -.351E-01 -.542E-01
   -.564E+01 -.204E+02 -.849E+03   0.592E+01 0.202E+02 0.846E+03   -.521E-01 0.466E+00 0.227E+01   -.315E-01 -.305E-01 -.159E-01
 -----------------------------------------------------------------------------------------------
   0.324E+02 0.390E+02 0.942E+00   0.146E-12 0.405E-12 0.807E-11   -.324E+02 -.390E+02 -.295E+00   -.199E-01 0.803E-02 -.707E+00
 
 
 POSITION                                       TOTAL-FORCE (eV/Angst)
 -----------------------------------------------------------------------------------
      6.92607      3.16996     14.84833         0.037528     -0.634145     -0.318091
      1.53218      1.34108     17.37943        -0.019393     -0.069932     -0.202482
      5.32049      4.69540     14.52418         0.421166      0.121522     -0.301561
      6.38506      0.97952     14.33393         0.221156     -0.256755      0.126039
      2.96772      1.39395     15.61022         0.104309      0.289915     -0.225274
      3.31385      1.90635     14.15097        -0.217038     -0.009550     -0.124286
      2.96168      2.41396     19.19230         0.529027     -0.614650      0.550468
      8.23527      2.35524     14.94366         0.381023     -0.092207     -0.123689
      6.82101      1.71991     18.80167        -1.272019      0.552107     -0.516311
      1.01723      0.20973     16.35880         0.047663      0.308981      0.406083
      0.11086      4.89362     15.98848         0.473250      1.165466      1.991018
      6.40036      4.80403     18.13785         1.450367     -0.181395     -1.223807
      7.75751      0.58536     18.93460         0.219570     -0.689047     -0.093718
      7.31474      7.94820     17.62573        -0.668342     -0.179899      0.134591
      4.73973      9.09562     19.83970        -0.455581      0.215110     -0.195738
      1.47353      2.79963     18.97500         0.209017     -0.066359      0.076983
      0.89498      2.96376     23.77685        -0.012614     -0.381018      0.219817
      2.19473      2.01694     23.50539        -0.419339      0.421259      0.182595
      4.81381      4.86394     21.49199         0.900549      0.037645     -0.167232
      3.60084      8.21509     26.50533         0.635588      1.471857     -0.273840
      2.65839      3.81046     21.77646        -0.274573      0.265465      0.185814
      4.06579      0.06403     21.83866        -0.046655     -0.262948     -0.261979
      7.18407      1.90740     22.60343         0.217168      0.493863      0.294370
      6.57496      3.31206     22.88475         0.141719      0.229093     -0.241138
      7.40173      7.68767     15.09829        -0.052979      0.296292     -0.224866
      2.22390      8.21102     15.03159         0.252484      0.013843     -0.281495
      4.88231      0.86888     14.23497        -0.133773     -0.366209      0.405495
      6.70437      5.41332     14.23384        -0.429833      0.460380     -0.164082
      2.05961      3.34759     14.89735         0.361316      0.164245     -0.029916
      1.78560      4.70471     14.15499         0.023011     -0.184967     -0.133872
      5.82734      6.72236     18.99842        -0.336783      0.693486      0.337371
      6.11193      8.03469     14.27351         0.144446      0.048054      0.248161
      1.30576      8.27528     18.21922        -0.834004      0.187511     -0.919652
      2.50069      7.02315     14.04235         0.100841      0.253718      0.055255
      8.21119      7.09693     16.65593         0.261405     -0.332500      0.740109
      3.22929      9.36654     19.51171         0.828387      0.099077      0.222685
      1.71725      7.89312     19.62248        -0.105927     -0.408293      0.323314
      1.07817      5.31974     17.10501         0.491212      0.069895      0.067369
      5.66938      4.56027     19.39596        -0.353471      0.358029      0.411205
      6.87126      7.64561     19.68357        -0.470124      0.107895      0.154516
      1.83247      6.55460     21.76303         0.992315     -1.402042      0.356355
      0.43059      7.03728     22.27215         0.506549     -0.016258     -0.240557
      5.19196      1.72335     23.02827        -0.401077     -0.842063      0.414447
      6.15713      5.68943     21.56110        -0.024537      0.434752      0.243528
      3.90983      8.94633     26.37007        -0.626555     -1.467194      0.249075
      2.34092      4.49435     20.42228         0.416324     -0.012668     -0.008946
      6.81365      7.37985     24.51580        -0.058143     -0.222019     -0.117154
      5.79171      8.08216     23.62737         0.009621     -0.456615     -0.235843
      1.66169      0.93896     16.49817        -0.526925     -0.570380     -0.079108
      6.15926      4.62425     13.99913        -0.610419     -0.237952      1.116456
      1.74581      4.26467     15.03132        -0.476141      0.034478      0.108366
      7.27383      2.24467     14.97678        -0.166685      0.703801      0.338340
      1.60086      2.72118     23.15779         0.665286     -0.159791     -0.625353
      5.59527      5.07008     18.55997        -0.812688      0.018767      0.645016
      0.14275      5.43523     16.88311        -0.978439     -1.507634     -1.968749
      2.38971      2.97740     18.67000        -1.055744      0.496332     -0.478557
      7.67618      1.51622     19.15938         1.119719      0.149518      0.568822
      5.81700      4.79886     21.40639        -1.037923     -0.718703      0.104440
      4.33270      9.46128     22.76543         0.364418      2.033340      0.630848
      6.94069      2.52208     23.33510        -0.218454     -0.396219     -0.413856
      1.92172      7.32319     14.77708        -0.276246     -0.179860      0.333962
      5.67681      0.28104     14.22279        -0.140027      0.235116     -0.552135
      3.55846      2.01223     15.09811         0.298333     -0.088127     -0.312412
      6.77181      7.32321     14.44376        -0.207419     -0.311390     -0.052562
      1.16434      7.21287     21.64178        -1.576491      1.393868     -0.201123
      4.02382      0.14161     19.95570        -0.321043     -0.375101     -0.168059
      8.03881      8.01604     16.99288         0.489160      1.032411     -0.657327
      5.94329      7.67819     19.35493         0.938304     -0.789840     -0.304652
      1.98592      7.79532     18.69067         0.954716      0.032470      0.876974
      4.34088      1.28759     23.35127        -0.146983     -1.095328     -0.512803
      2.86108      4.61451     21.24480        -0.020394     -0.069592      0.077796
      6.28115      7.22452     23.70996         0.071852      0.687276      0.144788
      1.39098      0.80308      7.13037         0.001914      0.022528     -0.339662
      4.17294      0.80308      7.13037        -0.010575     -0.058678     -0.356657
      6.95491      0.80308      7.13037        -0.022498     -0.056209     -0.448548
      0.00000      3.21233      7.13037        -0.012121     -0.060465     -0.400913
      2.78196      3.21233      7.13037         0.066237      0.054927     -0.374029
      5.56393      3.21233      7.13037         0.037480     -0.109448     -0.421816
      1.39098      5.62158      7.13037         0.002418      0.026725     -0.382607
      4.17294      5.62158      7.13037         0.015480     -0.018740     -0.356205
      6.95491      5.62158      7.13037         0.011697     -0.035661     -0.396036
      0.00000      8.03084      7.13037        -0.083254     -0.033431     -0.432603
      2.78196      8.03084      7.13037         0.021369      0.054478     -0.343220
      5.56393      8.03084      7.13037         0.037429     -0.093359     -0.477699
      0.00000      1.60617      9.40183         0.088355      0.102125      0.444552
      2.78196      1.60617      9.40183        -0.077221     -0.156200      0.651608
      5.56393      1.60617      9.40183         0.004058      0.212612      0.299726
      1.39098      4.01542      9.40183         0.047365     -0.046556      0.533394
      4.17294      4.01542      9.40183        -0.125667      0.087108      0.432525
      6.95491      4.01542      9.40183         0.120542     -0.002122      0.387063
      0.00000      6.42467      9.40183         0.020298      0.008865      0.554109
      2.78196      6.42467      9.40183        -0.088011     -0.074992      0.455925
      5.56393      6.42467      9.40183         0.015888      0.126704      0.547657
      1.39098      8.83392      9.40183         0.175410      0.047055      0.516112
      4.17294      8.83392      9.40183        -0.208858      0.116186      0.502981
      6.95491      8.83392      9.40183         0.133838     -0.035711      0.514337
      0.08248      0.05387     11.73384        -0.236762      0.023193      0.021243
      2.80481      0.06319     11.91545        -0.070281      0.085606     -0.400944
      5.58283      0.05623     11.69378        -0.000858     -0.135198      0.469860
      1.41356      2.47317     11.80744         0.041614     -0.050704     -0.060415
      4.17356      2.45586     11.73942        -0.183254     -0.066442     -0.043653
      6.98034      2.43814     11.75992         0.151461     -0.013487     -0.310833
      0.00139      4.84597     11.75058         0.216133      0.074371     -0.264106
      2.77793      4.88789     11.80996        -0.250918     -0.107059     -0.146434
      5.48883      4.83983     11.71865         0.374557      0.095202     -0.166448
      1.37442      7.28404     11.76461        -0.035931      0.024438     -0.205025
      4.12486      7.30898     11.72664         0.138395     -0.119955      0.095797
      6.94064      7.23426     11.79128         0.190253      0.184104     -0.489283
 -----------------------------------------------------------------------------------
    total drift:                               -0.006779      0.018774     -0.059662


--------------------------------------------------------------------------------------------------------



  FREE ENERGIE OF THE ION-ELECTRON SYSTEM (eV)
  ---------------------------------------------------
  free  energy   TOTEN  =      -553.60059195 eV

  energy  without entropy=     -553.17316024  energy(sigma->0) =     -553.38687609
 


--------------------------------------------------------------------------------------------------------


    POTLOK:  cpu time    0.1407: real time    0.1409


--------------------------------------------------------------------------------------------------------


 stress matrix after NEB project (eV)
    -62.14645     -3.20361     -1.64624
     -3.20361    -67.32118     -2.61181
     -1.64624     -2.61181    -12.21067
  FORCES: max atom, RMS     2.665760    0.808072
  FORCE total and by dimension    8.397726    2.033340
  Stress total and by dimension   92.644551   67.321178
     LOOP+:  cpu time 5047.0913: real time 5054.2103
 vacuum level on the upper side and lower side of the slab         3.840         5.124
    4ORBIT:  cpu time    0.0000: real time    0.0000

 total amount of memory used by VASP MPI-rank0   167313. kBytes
=======================================================================

   base      :      30000. kBytes
   nonlr-proj:       4419. kBytes
   fftplans  :       6719. kBytes
   grid      :      12775. kBytes
   one-center:        108. kBytes
   wavefun   :     113292. kBytes
 
  
  
 General timing and accounting informations for this job:
 ========================================================
  
                  Total CPU time used (sec):     5058.683
                            User time (sec):     5037.199
                          System time (sec):       21.484
                         Elapsed time (sec):     5066.374
  
                   Maximum memory used (kb):      326808.
                   Average memory used (kb):           0.
  
                          Minor page faults:       566042
                          Major page faults:            0
                 Voluntary context switches:         3360
