<?xml version="1.0" encoding="ISO-8859-1"?>
<modeling>
 <generator>
  <i name="program" type="string">vasp </i>
  <i name="version" type="string">5.4.4.18Apr17-6-g9f103f2a35  </i>
  <i name="subversion" type="string">(build Feb 25 2019 10:51:38) complex            parallel </i>
  <i name="platform" type="string">LinuxIFC </i>
  <i name="date" type="string">2019 08 03 </i>
  <i name="time" type="string">08:40:05 </i>
 </generator>
 <incar>
  <i type="string" name="SYSTEM"> CuH2O</i>
  <i type="int" name="ISTART">     0</i>
  <i type="string" name="PREC">normal</i>
  <i type="int" name="NELM">   200</i>
  <i type="int" name="IBRION">    -1</i>
  <i name="EDIFF">      0.00010000</i>
  <i name="EDIFFG">      0.00000000</i>
  <i type="int" name="NSW">     0</i>
  <i name="ENCUT">    400.00000000</i>
  <i type="string" name="LREAL"> AUTO</i>
  <i type="int" name="ISMEAR">     0</i>
  <i name="SIGMA">      0.10000000</i>
  <i type="logical" name="LWAVE"> F  </i>
  <i type="logical" name="LCHARG"> F  </i>
  <i type="logical" name="LVHAR"> T  </i>
  <v type="int" name="KPOINT_BSE">    -1     0     0     0</v>
  <i type="int" name="NELM">   200</i>
  <i type="string" name="GGA"> RP</i>
  <i type="logical" name="LDIPOL"> T  </i>
  <i type="int" name="IDIPOL">     3</i>
  <v name="DIPOL">      0.50000000      0.50000000      0.50000000</v>
 </incar>
 <structure name="primitive_cell" >
  <crystal>
   <varray name="basis" >
    <v>       8.34588864       0.00000000       0.00000000 </v>
    <v>       0.00000000       9.63700211       0.00000000 </v>
    <v>       0.00000000       0.00000000      32.54292636 </v>
   </varray>
   <i name="volume">   2617.40629817 </i>
   <varray name="rec_basis" >
    <v>       0.11981948       0.00000000       0.00000000 </v>
    <v>       0.00000000       0.10376671       0.00000000 </v>
    <v>       0.00000000       0.00000000       0.03072864 </v>
   </varray>
  </crystal>
  <varray name="positions" >
   <v>      -0.17012218       0.32893657       0.45626907 </v>
   <v>      -0.12845364       0.23292252       0.46021623 </v>
   <v>      -0.01325478       0.24439557       0.45919843 </v>
   <v>      -0.26200088       0.47984270       0.43017420 </v>
   <v>      -0.36250142       0.48722646       0.44630824 </v>
   <v>      -0.23494521       0.10164196       0.44046232 </v>
   <v>      -0.19668575      -0.43827797       0.43738646 </v>
   <v>       0.01328270      -0.49220510       0.49130433 </v>
   <v>      -0.41500416       0.09016055       0.43742120 </v>
   <v>      -0.16361907       0.25299764       0.36136653 </v>
   <v>      -0.31980723       0.02916295       0.43704695 </v>
   <v>       0.20918162       0.44253088       0.46189223 </v>
   <v>       0.01710425      -0.43600371      -0.48120494 </v>
   <v>       0.24678164       0.34736810       0.45777538 </v>
   <v>       0.42637330       0.20880278       0.46394447 </v>
   <v>       0.21394966       0.48819187       0.43496350 </v>
   <v>      -0.23311186       0.49849788      -0.44264854 </v>
   <v>       0.00016611      -0.49714978       0.36107934 </v>
   <v>      -0.34233147      -0.49778676       0.36009824 </v>
   <v>       0.39706373       0.19781595       0.43484001 </v>
   <v>       0.12918582      -0.44798836      -0.47438620 </v>
   <v>       0.12188353       0.02176257      -0.49731628 </v>
   <v>       0.19910286       0.09743328      -0.49303369 </v>
   <v>      -0.18860542      -0.24009449       0.44383707 </v>
   <v>      -0.18271058       0.17846930      -0.42225008 </v>
   <v>      -0.49992669       0.25483660       0.36073641 </v>
   <v>       0.16937191       0.25663271       0.36282662 </v>
   <v>       0.18358552       0.13915953      -0.46595374 </v>
   <v>      -0.32957710      -0.47389456      -0.42967743 </v>
   <v>       0.35559030       0.14464578       0.47968083 </v>
   <v>      -0.01613911      -0.26357492      -0.48818577 </v>
   <v>      -0.11312899      -0.20227568       0.46395006 </v>
   <v>      -0.33106865       0.00583492       0.35933391 </v>
   <v>       0.00988236       0.00559020       0.36056499 </v>
   <v>      -0.08024358       0.15733360      -0.41125809 </v>
   <v>      -0.26767190      -0.16626692       0.43860562 </v>
   <v>      -0.07049901       0.06074068      -0.41816547 </v>
   <v>      -0.32069833       0.47320442      -0.40398838 </v>
   <v>       0.17655779       0.29050858      -0.41692402 </v>
   <v>      -0.16837616      -0.24932510       0.36233011 </v>
   <v>       0.23025939      -0.24009672       0.45407968 </v>
   <v>      -0.03679374      -0.16820238      -0.47783195 </v>
   <v>       0.28633383       0.30895456      -0.42629620 </v>
   <v>       0.33285016      -0.49279932       0.36290396 </v>
   <v>      -0.16666667       0.41666667       0.28890555 </v>
   <v>      -0.12355180      -0.17524167      -0.45838516 </v>
   <v>       0.29963182      -0.27123039       0.43150231 </v>
   <v>      -0.30177149      -0.30244305      -0.41620434 </v>
   <v>      -0.33333333       0.16666667       0.28890555 </v>
   <v>       0.00000000       0.16666667       0.28890555 </v>
   <v>       0.16468228      -0.24415931       0.36151038 </v>
   <v>       0.26646632      -0.14796969       0.46190029 </v>
   <v>       0.49423870      -0.24157091       0.36034385 </v>
   <v>       0.35486673       0.25048871      -0.41024665 </v>
   <v>       0.33607073       0.00655748       0.36614563 </v>
   <v>      -0.50000000       0.41666667       0.28890555 </v>
   <v>       0.16666667       0.41666667       0.28890555 </v>
   <v>       0.15645553      -0.14130134      -0.44014806 </v>
   <v>      -0.28787778      -0.20325902      -0.40524929 </v>
   <v>      -0.33333333      -0.33333333       0.28890555 </v>
   <v>       0.00000000      -0.33333333       0.28890555 </v>
   <v>      -0.17668895      -0.20664037      -0.39515062 </v>
   <v>      -0.43208800      -0.05617747      -0.39035307 </v>
   <v>       0.48213239       0.01469457      -0.38678841 </v>
   <v>      -0.16666667      -0.08333333       0.28890555 </v>
   <v>      -0.30301041       0.49796240      -0.34221066 </v>
   <v>       0.28048723       0.46636380      -0.37245118 </v>
   <v>       0.38693224      -0.02806486      -0.40043164 </v>
   <v>       0.23795216      -0.19110564      -0.42566105 </v>
   <v>       0.33333333       0.16666667       0.28890555 </v>
   <v>      -0.42321230      -0.49528531      -0.33958040 </v>
   <v>      -0.26225629      -0.40962684      -0.33745672 </v>
   <v>      -0.50000000      -0.08333333       0.28890555 </v>
   <v>       0.16666667      -0.08333333       0.28890555 </v>
   <v>       0.20575974      -0.18095656      -0.39702772 </v>
   <v>       0.33333333      -0.33333333       0.28890555 </v>
   <v>       0.34281322       0.47883284      -0.34717596 </v>
   <v>      -0.33333333       0.33333333       0.21910656 </v>
   <v>       0.00000000       0.33333333       0.21910656 </v>
   <v>      -0.13920795       0.19792432      -0.30542715 </v>
   <v>      -0.21219117       0.34368172      -0.29678274 </v>
   <v>       0.31852688       0.39539938      -0.33083880 </v>
   <v>      -0.16666667       0.08333333       0.21910656 </v>
   <v>      -0.16666667      -0.41666667       0.21910656 </v>
   <v>       0.48716086       0.00664387      -0.32892745 </v>
   <v>       0.13951090      -0.25154381      -0.33497745 </v>
   <v>       0.21956527      -0.31985076      -0.33125151 </v>
   <v>      -0.37790241       0.17882606      -0.29237236 </v>
   <v>      -0.16836991       0.26170834      -0.28294414 </v>
   <v>      -0.50000000       0.08333333       0.21910656 </v>
   <v>       0.16666667       0.08333333       0.21910656 </v>
   <v>      -0.50000000      -0.41666667       0.21910656 </v>
   <v>       0.16666667      -0.41666667       0.21910656 </v>
   <v>       0.05159259      -0.26976500      -0.31560713 </v>
   <v>       0.33333333       0.33333333       0.21910656 </v>
   <v>       0.19181435       0.28236783      -0.28839264 </v>
   <v>      -0.48085794      -0.01823362      -0.30044923 </v>
   <v>      -0.47987772       0.13360900      -0.28244719 </v>
   <v>      -0.33333333      -0.16666667       0.21910656 </v>
   <v>       0.00000000      -0.16666667       0.21910656 </v>
   <v>       0.10723629       0.30753928      -0.26936965 </v>
   <v>       0.26297113       0.20929135      -0.27771123 </v>
   <v>      -0.24739629      -0.25033501      -0.27142521 </v>
   <v>       0.33333333      -0.16666667       0.21910656 </v>
   <v>      -0.30604042      -0.16134120      -0.27396281 </v>
   <v>      -0.18359218      -0.23421703      -0.24666282 </v>
   <v>       0.46847423      -0.07166892      -0.18968352 </v>
   <v>       0.43145067      -0.14754752      -0.18552718 </v>
  </varray>
 </structure>
 <varray name="primitive_index" >
  <v type="int" >        1 </v>
  <v type="int" >       52 </v>
  <v type="int" >        8 </v>
  <v type="int" >       50 </v>
  <v type="int" >        3 </v>
  <v type="int" >        4 </v>
  <v type="int" >       28 </v>
  <v type="int" >       11 </v>
  <v type="int" >       27 </v>
  <v type="int" >      102 </v>
  <v type="int" >       62 </v>
  <v type="int" >       51 </v>
  <v type="int" >       55 </v>
  <v type="int" >       29 </v>
  <v type="int" >       63 </v>
  <v type="int" >       30 </v>
  <v type="int" >       12 </v>
  <v type="int" >      103 </v>
  <v type="int" >      105 </v>
  <v type="int" >        6 </v>
  <v type="int" >       38 </v>
  <v type="int" >       10 </v>
  <v type="int" >       49 </v>
  <v type="int" >       64 </v>
  <v type="int" >        9 </v>
  <v type="int" >      101 </v>
  <v type="int" >      100 </v>
  <v type="int" >        2 </v>
  <v type="int" >       54 </v>
  <v type="int" >        5 </v>
  <v type="int" >       35 </v>
  <v type="int" >       25 </v>
  <v type="int" >       99 </v>
  <v type="int" >       97 </v>
  <v type="int" >       57 </v>
  <v type="int" >       32 </v>
  <v type="int" >       13 </v>
  <v type="int" >       39 </v>
  <v type="int" >       16 </v>
  <v type="int" >      108 </v>
  <v type="int" >       61 </v>
  <v type="int" >       67 </v>
  <v type="int" >       56 </v>
  <v type="int" >      104 </v>
  <v type="int" >       90 </v>
  <v type="int" >       14 </v>
  <v type="int" >       34 </v>
  <v type="int" >       31 </v>
  <v type="int" >       87 </v>
  <v type="int" >       85 </v>
  <v type="int" >      106 </v>
  <v type="int" >       26 </v>
  <v type="int" >      107 </v>
  <v type="int" >        7 </v>
  <v type="int" >       98 </v>
  <v type="int" >       89 </v>
  <v type="int" >       88 </v>
  <v type="int" >       33 </v>
  <v type="int" >       68 </v>
  <v type="int" >       93 </v>
  <v type="int" >       91 </v>
  <v type="int" >       40 </v>
  <v type="int" >       15 </v>
  <v type="int" >       66 </v>
  <v type="int" >       96 </v>
  <v type="int" >       58 </v>
  <v type="int" >       46 </v>
  <v type="int" >       36 </v>
  <v type="int" >       69 </v>
  <v type="int" >       86 </v>
  <v type="int" >       19 </v>
  <v type="int" >       44 </v>
  <v type="int" >       95 </v>
  <v type="int" >       94 </v>
  <v type="int" >       37 </v>
  <v type="int" >       92 </v>
  <v type="int" >       71 </v>
  <v type="int" >       78 </v>
  <v type="int" >       76 </v>
  <v type="int" >       23 </v>
  <v type="int" >       24 </v>
  <v type="int" >       21 </v>
  <v type="int" >       75 </v>
  <v type="int" >       81 </v>
  <v type="int" >       22 </v>
  <v type="int" >       65 </v>
  <v type="int" >       41 </v>
  <v type="int" >       43 </v>
  <v type="int" >       60 </v>
  <v type="int" >       74 </v>
  <v type="int" >       73 </v>
  <v type="int" >       80 </v>
  <v type="int" >       79 </v>
  <v type="int" >       42 </v>
  <v type="int" >       77 </v>
  <v type="int" >       53 </v>
  <v type="int" >       59 </v>
  <v type="int" >       70 </v>
  <v type="int" >       84 </v>
  <v type="int" >       82 </v>
  <v type="int" >       17 </v>
  <v type="int" >       18 </v>
  <v type="int" >       72 </v>
  <v type="int" >       83 </v>
  <v type="int" >       48 </v>
  <v type="int" >       47 </v>
  <v type="int" >       45 </v>
  <v type="int" >       20 </v>
 </varray>
 <kpoints>
  <generation param="Gamma">
   <v type="int" name="divisions">       4        3        1 </v>
   <v name="usershift">      0.00000000       0.00000000       0.00000000 </v>
   <v name="genvec1">      0.25000000       0.00000000       0.00000000 </v>
   <v name="genvec2">      0.00000000       0.33333333       0.00000000 </v>
   <v name="genvec3">      0.00000000       0.00000000       1.00000000 </v>
   <v name="shift">      0.00000000       0.00000000       0.00000000 </v>
  </generation>
  <varray name="kpointlist" >
   <v>       0.00000000       0.00000000       0.00000000 </v>
   <v>       0.25000000       0.00000000       0.00000000 </v>
   <v>       0.50000000       0.00000000       0.00000000 </v>
   <v>       0.00000000       0.33333333       0.00000000 </v>
   <v>       0.25000000       0.33333333       0.00000000 </v>
   <v>       0.50000000       0.33333333       0.00000000 </v>
   <v>      -0.25000000       0.33333333       0.00000000 </v>
  </varray>
  <varray name="weights" >
   <v>       0.08333333 </v>
   <v>       0.16666667 </v>
   <v>       0.08333333 </v>
   <v>       0.16666667 </v>
   <v>       0.16666667 </v>
   <v>       0.16666667 </v>
   <v>       0.16666667 </v>
  </varray>
 </kpoints>
 <parameters>
  <separator name="general" >
   <i type="string" name="SYSTEM">CuH2O</i>
   <i type="logical" name="LCOMPAT"> F  </i>
  </separator>
  <separator name="electronic" >
   <i type="string" name="PREC">normal</i>
   <i name="ENMAX">    400.00000000</i>
   <i name="ENAUG">    605.39200000</i>
   <i name="EDIFF">      0.00010000</i>
   <i type="int" name="IALGO">    38</i>
   <i type="int" name="IWAVPR">    10</i>
   <i type="int" name="NBANDS">   331</i>
   <i name="NELECT">    552.00000000</i>
   <i type="int" name="TURBO">     0</i>
   <i type="int" name="IRESTART">     0</i>
   <i type="int" name="NREBOOT">     0</i>
   <i type="int" name="NMIN">     0</i>
   <i name="EREF">      0.00000000</i>
   <separator name="electronic smearing" >
    <i type="int" name="ISMEAR">     0</i>
    <i name="SIGMA">      0.10000000</i>
    <i name="KSPACING">      0.50000000</i>
    <i type="logical" name="KGAMMA"> T  </i>
   </separator>
   <separator name="electronic projectors" >
    <i type="logical" name="LREAL"> T  </i>
    <v name="ROPT">     -0.00050000     -0.00050000     -0.00050000</v>
    <i type="int" name="LMAXPAW">  -100</i>
    <i type="int" name="LMAXMIX">     2</i>
    <i type="logical" name="NLSPLINE"> F  </i>
   </separator>
   <separator name="electronic startup" >
    <i type="int" name="ISTART">     0</i>
    <i type="int" name="ICHARG">     2</i>
    <i type="int" name="INIWAV">     1</i>
   </separator>
   <separator name="electronic spin" >
    <i type="int" name="ISPIN">     1</i>
    <i type="logical" name="LNONCOLLINEAR"> F  </i>
    <v name="MAGMOM">      1.00000000      1.00000000      1.00000000      1.00000000      1.00000000      1.00000000      1.00000000      1.00000000      1.00000000      1.00000000      1.00000000      1.00000000      1.00000000      1.00000000      1.00000000      1.00000000      1.00000000      1.00000000      1.00000000      1.00000000
      1.00000000      1.00000000      1.00000000      1.00000000      1.00000000      1.00000000      1.00000000      1.00000000      1.00000000      1.00000000      1.00000000      1.00000000      1.00000000      1.00000000      1.00000000      1.00000000      1.00000000      1.00000000      1.00000000      1.00000000
      1.00000000      1.00000000      1.00000000      1.00000000      1.00000000      1.00000000      1.00000000      1.00000000      1.00000000      1.00000000      1.00000000      1.00000000      1.00000000      1.00000000      1.00000000      1.00000000      1.00000000      1.00000000      1.00000000      1.00000000
      1.00000000      1.00000000      1.00000000      1.00000000      1.00000000      1.00000000      1.00000000      1.00000000      1.00000000      1.00000000      1.00000000      1.00000000      1.00000000      1.00000000      1.00000000      1.00000000      1.00000000      1.00000000      1.00000000      1.00000000
      1.00000000      1.00000000      1.00000000      1.00000000      1.00000000      1.00000000      1.00000000      1.00000000      1.00000000      1.00000000      1.00000000      1.00000000      1.00000000      1.00000000      1.00000000      1.00000000      1.00000000      1.00000000      1.00000000      1.00000000
      1.00000000      1.00000000      1.00000000      1.00000000      1.00000000      1.00000000      1.00000000      1.00000000</v>
    <i name="NUPDOWN">     -1.00000000</i>
    <i type="logical" name="LSORBIT"> F  </i>
    <v name="SAXIS">      0.00000000      0.00000000      1.00000000</v>
    <i type="logical" name="LSPIRAL"> F  </i>
    <v name="QSPIRAL">      0.00000000      0.00000000      0.00000000</v>
    <i type="logical" name="LZEROZ"> F  </i>
   </separator>
   <separator name="electronic exchange-correlation" >
    <i type="logical" name="LASPH"> F  </i>
    <i type="logical" name="LMETAGGA"> F  </i>
   </separator>
   <separator name="electronic convergence" >
    <i type="int" name="NELM">   200</i>
    <i type="int" name="NELMDL">    -5</i>
    <i type="int" name="NELMIN">     2</i>
    <i name="ENINI">    400.00000000</i>
    <separator name="electronic convergence detail" >
     <i type="logical" name="LDIAG"> T  </i>
     <i type="logical" name="LSUBROT"> F  </i>
     <i name="WEIMIN">      0.00000000</i>
     <i name="EBREAK">      0.00000000</i>
     <i name="DEPER">      0.30000000</i>
     <i type="int" name="NRMM">     4</i>
     <i name="TIME">      0.40000000</i>
    </separator>
   </separator>
   <separator name="electronic mixer" >
    <i name="AMIX">      0.40000000</i>
    <i name="BMIX">      1.00000000</i>
    <i name="AMIN">      0.10000000</i>
    <i name="AMIX_MAG">      1.60000000</i>
    <i name="BMIX_MAG">      1.00000000</i>
    <separator name="electronic mixer details" >
     <i type="int" name="IMIX">     4</i>
     <i type="logical" name="MIXFIRST"> F  </i>
     <i type="int" name="MAXMIX">   -45</i>
     <i name="WC">    100.00000000</i>
     <i type="int" name="INIMIX">     1</i>
     <i type="int" name="MIXPRE">     1</i>
     <i type="int" name="MREMOVE">     5</i>
    </separator>
   </separator>
   <separator name="electronic dipolcorrection" >
    <i type="logical" name="LDIPOL"> T  </i>
    <i type="logical" name="LMONO"> F  </i>
    <i type="int" name="IDIPOL">     3</i>
    <i name="EPSILON">      1.00000000</i>
    <v name="DIPOL">      0.50000000      0.50000000      0.50000000</v>
    <i name="EFIELD">      0.00000000</i>
   </separator>
  </separator>
  <separator name="grids" >
   <i type="int" name="NGX">    42</i>
   <i type="int" name="NGY">    48</i>
   <i type="int" name="NGZ">   160</i>
   <i type="int" name="NGXF">    84</i>
   <i type="int" name="NGYF">    96</i>
   <i type="int" name="NGZF">   320</i>
   <i type="logical" name="ADDGRID"> F  </i>
  </separator>
  <separator name="ionic" >
   <i type="int" name="NSW">     0</i>
   <i type="int" name="IBRION">    -1</i>
   <i type="int" name="MDALGO">     0</i>
   <i type="int" name="ISIF">     2</i>
   <i name="PSTRESS">      0.00000000</i>
   <i name="EDIFFG">      0.00000000</i>
   <i type="int" name="NFREE">     0</i>
   <i name="POTIM">      0.50000000</i>
   <i name="SMASS">     -3.00000000</i>
   <i name="SCALEE">      1.00000000</i>
  </separator>
  <separator name="ionic md" >
   <i name="TEBEG">      0.00010000</i>
   <i name="TEEND">      0.00010000</i>
   <i type="int" name="NBLOCK">     1</i>
   <i type="int" name="KBLOCK">     1</i>
   <i type="int" name="NPACO">   256</i>
   <i name="APACO">     16.00000000</i>
  </separator>
  <separator name="symmetry" >
   <i type="int" name="ISYM">     2</i>
   <i name="SYMPREC">      0.00001000</i>
  </separator>
  <separator name="dos" >
   <i type="int" name="LORBIT">     0</i>
   <v name="RWIGS">     -1.00000000     -1.00000000     -1.00000000</v>
   <i type="int" name="NEDOS">   301</i>
   <i name="EMIN">     10.00000000</i>
   <i name="EMAX">    -10.00000000</i>
   <i name="EFERMI">      0.00000000</i>
  </separator>
  <separator name="writing" >
   <i type="int" name="NWRITE">     2</i>
   <i type="logical" name="LWAVE"> F  </i>
   <i type="logical" name="LDOWNSAMPLE"> F  </i>
   <i type="logical" name="LCHARG"> F  </i>
   <i type="logical" name="LPARD"> F  </i>
   <i type="logical" name="LVTOT"> F  </i>
   <i type="logical" name="LVHAR"> T  </i>
   <i type="logical" name="LELF"> F  </i>
   <i type="logical" name="LOPTICS"> F  </i>
   <v name="STM">      0.00000000      0.00000000      0.00000000      0.00000000      0.00000000      0.00000000      0.00000000</v>
  </separator>
  <separator name="performance" >
   <i type="int" name="NPAR">     1</i>
   <i type="int" name="NSIM">     4</i>
   <i type="int" name="NBLK">    -1</i>
   <i type="logical" name="LPLANE"> T  </i>
   <i type="logical" name="LSCALAPACK"> T  </i>
   <i type="logical" name="LSCAAWARE"> F  </i>
   <i type="logical" name="LSCALU"> F  </i>
   <i type="logical" name="LASYNC"> F  </i>
   <i type="logical" name="LORBITALREAL"> F  </i>
  </separator>
  <separator name="miscellaneous" >
   <i type="int" name="IDIOT">     3</i>
   <i type="int" name="ISPECIAL">     0</i>
   <i type="logical" name="LMUSIC"> F  </i>
   <v name="POMASS">      1.00000000     16.00000000    195.08000000</v>
   <v name="DARWINR">      0.00000000      0.00000000      0.00000000</v>
   <v name="DARWINV">      1.00000000      1.00000000      1.00000000</v>
   <i type="logical" name="LCORR"> T  </i>
  </separator>
  <i type="logical" name="GGA_COMPAT"> T  </i>
  <i type="logical" name="LBERRY"> F  </i>
  <i type="int" name="ICORELEVEL">     0</i>
  <i type="logical" name="LDAU"> F  </i>
  <i type="int" name="I_CONSTRAINED_M">     0</i>
  <separator name="electronic exchange-correlation" >
   <i type="string" name="GGA">RP</i>
   <i type="int" name="VOSKOWN">     0</i>
   <i type="logical" name="LHFCALC"> F  </i>
   <i type="string" name="PRECFOCK"></i>
   <i type="logical" name="LSYMGRAD"> F  </i>
   <i type="logical" name="LHFONE"> F  </i>
   <i type="logical" name="LRHFCALC"> F  </i>
   <i type="logical" name="LTHOMAS"> F  </i>
   <i type="logical" name="LMODELHF"> F  </i>
   <i name="ENCUT4O">     -1.00000000</i>
   <i type="int" name="EXXOEP">     0</i>
   <i type="int" name="FOURORBIT">     0</i>
   <i name="AEXX">      0.00000000</i>
   <i name="HFALPHA">      0.00000000</i>
   <i name="MCALPHA">      0.00000000</i>
   <i name="ALDAX">      1.00000000</i>
   <i name="AGGAX">      1.00000000</i>
   <i name="ALDAC">      1.00000000</i>
   <i name="AGGAC">      1.00000000</i>
   <i type="int" name="NKREDX">     1</i>
   <i type="int" name="NKREDY">     1</i>
   <i type="int" name="NKREDZ">     1</i>
   <i type="logical" name="SHIFTRED"> F  </i>
   <i type="logical" name="ODDONLY"> F  </i>
   <i type="logical" name="EVENONLY"> F  </i>
   <i type="int" name="LMAXFOCK">     0</i>
   <i type="int" name="NMAXFOCKAE">     0</i>
   <i type="logical" name="LFOCKAEDFT"> F  </i>
   <i name="HFSCREEN">      0.00000000</i>
   <i name="HFSCREENC">      0.00000000</i>
   <i type="int" name="NBANDSGWLOW">     0</i>
  </separator>
  <separator name="vdW DFT" >
   <i type="logical" name="LUSE_VDW"> F  </i>
   <i name="Zab_VDW">     -0.84910000</i>
   <i name="PARAM1">      0.12340000</i>
   <i name="PARAM2">      1.00000000</i>
   <i name="PARAM3">      0.00000000</i>
  </separator>
  <separator name="model GW" >
   <i type="int" name="MODEL_GW">     0</i>
   <i name="MODEL_EPS0">     14.54114610</i>
   <i name="MODEL_ALPHA">      1.00000000</i>
  </separator>
  <separator name="linear response parameters" >
   <i type="logical" name="LEPSILON"> F  </i>
   <i type="logical" name="LRPA"> F  </i>
   <i type="logical" name="LNABLA"> F  </i>
   <i type="logical" name="LVEL"> F  </i>
   <i type="int" name="KINTER">     0</i>
   <i name="CSHIFT">      0.10000000</i>
   <i name="OMEGAMAX">     -1.00000000</i>
   <i name="DEG_THRESHOLD">      0.00200000</i>
   <i name="RTIME">     -0.10000000</i>
   <i name="WPLASMAI">      0.00000000</i>
   <v name="DFIELD">      0.00000000      0.00000000      0.00000000</v>
   <v name="WPLASMA">      0.00000000      0.00000000      0.00000000      0.00000000      0.00000000      0.00000000      0.00000000      0.00000000      0.00000000</v>
  </separator>
  <separator name="orbital magnetization" >
   <i type="logical" name="NUCIND"> F  </i>
   <v name="MAGPOS">      0.00000000      0.00000000      0.00000000</v>
   <i type="logical" name="LNICSALL"> T  </i>
   <i type="logical" name="ORBITALMAG"> F  </i>
   <i type="logical" name="LMAGBLOCH"> F  </i>
   <i type="logical" name="LCHIMAG"> F  </i>
   <i type="logical" name="LGAUGE"> T  </i>
   <i type="int" name="MAGATOM">     0</i>
   <v name="MAGDIPOL">      0.00000000      0.00000000      0.00000000</v>
   <v name="AVECCONST">      0.00000000      0.00000000      0.00000000</v>
  </separator>
  <separator name="response functions" >
   <i type="logical" name="LADDER"> F  </i>
   <i type="logical" name="LRPAFORCE"> F  </i>
   <i type="logical" name="LFXC"> F  </i>
   <i type="logical" name="LHARTREE"> T  </i>
   <i type="int" name="IBSE">     0</i>
   <v type="int" name="KPOINT">    -1     0     0     0</v>
   <i type="logical" name="LTCTE"> F  </i>
   <i type="logical" name="LTETE"> F  </i>
   <i type="logical" name="LTRIPLET"> F  </i>
   <i type="logical" name="LFXCEPS"> F  </i>
   <i type="logical" name="LFXHEG"> F  </i>
   <i type="int" name="NATURALO">     2</i>
   <i type="logical" name="L2ORDER"> F  </i>
   <i type="logical" name="LMP2LT"> F  </i>
   <i type="logical" name="LUSEW"> F  </i>
   <i name="ENCUTGW">     -2.00000000</i>
   <i name="ENCUTGWSOFT">     -2.00000000</i>
   <i name="ENCUTLF">     -1.00000000</i>
   <i type="int" name="LMAXMP2">    -1</i>
   <i name="SCISSOR">      0.00000000</i>
   <i type="int" name="NOMEGA">     0</i>
   <i type="int" name="NOMEGAR">     0</i>
   <i type="int" name="NBANDSGW">    -1</i>
   <i type="int" name="NBANDSO">    -1</i>
   <i type="int" name="NBANDSV">    -1</i>
   <i type="int" name="NELM">   200</i>
   <i type="int" name="NELMHF">     1</i>
   <i type="int" name="DIM">     3</i>
   <i type="int" name="ANTIRES">     0</i>
   <i name="OMEGAMAX">    -30.00000000</i>
   <i name="OMEGAMIN">    -30.00000000</i>
   <i name="OMEGATL">   -200.00000000</i>
   <i type="int" name="OMEGAGRID">   140</i>
   <i name="CSHIFT">     -0.10000000</i>
   <i type="logical" name="SELFENERGY"> F  </i>
   <i type="logical" name="LSPECTRAL"> F  </i>
   <i type="logical" name="LSPECTRALGW"> F  </i>
   <i type="logical" name="LSINGLES"> F  </i>
   <i type="logical" name="LFERMIGW"> F  </i>
   <i type="logical" name="ODDONLYGW"> F  </i>
   <i type="logical" name="EVENONLYGW"> F  </i>
   <i type="int" name="NKREDLFX">     1</i>
   <i type="int" name="NKREDLFY">     1</i>
   <i type="int" name="NKREDLFZ">     1</i>
   <i type="int" name="MAXMEM">  2800</i>
   <i type="int" name="TELESCOPE">     0</i>
   <i type="int" name="TAUPAR">     1</i>
   <i type="int" name="OMEGAPAR">    -1</i>
   <i name="LAMBDA">      1.00000000</i>
  </separator>
  <separator name="External order field" >
   <i name="OFIELD_KAPPA">      0.00000000</i>
   <v name="OFIELD_K">      0.00000000      0.00000000      0.00000000</v>
   <i name="OFIELD_Q6_NEAR">      0.00000000</i>
   <i name="OFIELD_Q6_FAR">      0.00000000</i>
   <i name="OFIELD_A">      0.00000000</i>
  </separator>
  <separator name="solvation model" >
   <i type="logical" name="LSOL"> F  </i>
  </separator>
 </parameters>
 <atominfo>
  <atoms>     108 </atoms>
  <types>       3 </types>
  <array name="atoms" >
   <dimension dim="1">ion</dimension>
   <field type="string">element</field>
   <field type="int">atomtype</field>
   <set>
    <rc><c>H </c><c>   1</c></rc>
    <rc><c>H </c><c>   1</c></rc>
    <rc><c>H </c><c>   1</c></rc>
    <rc><c>H </c><c>   1</c></rc>
    <rc><c>H </c><c>   1</c></rc>
    <rc><c>H </c><c>   1</c></rc>
    <rc><c>H </c><c>   1</c></rc>
    <rc><c>H </c><c>   1</c></rc>
    <rc><c>H </c><c>   1</c></rc>
    <rc><c>H </c><c>   1</c></rc>
    <rc><c>H </c><c>   1</c></rc>
    <rc><c>H </c><c>   1</c></rc>
    <rc><c>H </c><c>   1</c></rc>
    <rc><c>H </c><c>   1</c></rc>
    <rc><c>H </c><c>   1</c></rc>
    <rc><c>H </c><c>   1</c></rc>
    <rc><c>H </c><c>   1</c></rc>
    <rc><c>H </c><c>   1</c></rc>
    <rc><c>H </c><c>   1</c></rc>
    <rc><c>H </c><c>   1</c></rc>
    <rc><c>H </c><c>   1</c></rc>
    <rc><c>H </c><c>   1</c></rc>
    <rc><c>H </c><c>   1</c></rc>
    <rc><c>H </c><c>   1</c></rc>
    <rc><c>H </c><c>   1</c></rc>
    <rc><c>H </c><c>   1</c></rc>
    <rc><c>H </c><c>   1</c></rc>
    <rc><c>H </c><c>   1</c></rc>
    <rc><c>H </c><c>   1</c></rc>
    <rc><c>H </c><c>   1</c></rc>
    <rc><c>H </c><c>   1</c></rc>
    <rc><c>H </c><c>   1</c></rc>
    <rc><c>H </c><c>   1</c></rc>
    <rc><c>H </c><c>   1</c></rc>
    <rc><c>H </c><c>   1</c></rc>
    <rc><c>H </c><c>   1</c></rc>
    <rc><c>H </c><c>   1</c></rc>
    <rc><c>H </c><c>   1</c></rc>
    <rc><c>H </c><c>   1</c></rc>
    <rc><c>H </c><c>   1</c></rc>
    <rc><c>H </c><c>   1</c></rc>
    <rc><c>H </c><c>   1</c></rc>
    <rc><c>H </c><c>   1</c></rc>
    <rc><c>H </c><c>   1</c></rc>
    <rc><c>H </c><c>   1</c></rc>
    <rc><c>H </c><c>   1</c></rc>
    <rc><c>H </c><c>   1</c></rc>
    <rc><c>H </c><c>   1</c></rc>
    <rc><c>O </c><c>   2</c></rc>
    <rc><c>O </c><c>   2</c></rc>
    <rc><c>O </c><c>   2</c></rc>
    <rc><c>O </c><c>   2</c></rc>
    <rc><c>O </c><c>   2</c></rc>
    <rc><c>O </c><c>   2</c></rc>
    <rc><c>O </c><c>   2</c></rc>
    <rc><c>O </c><c>   2</c></rc>
    <rc><c>O </c><c>   2</c></rc>
    <rc><c>O </c><c>   2</c></rc>
    <rc><c>O </c><c>   2</c></rc>
    <rc><c>O </c><c>   2</c></rc>
    <rc><c>O </c><c>   2</c></rc>
    <rc><c>O </c><c>   2</c></rc>
    <rc><c>O </c><c>   2</c></rc>
    <rc><c>O </c><c>   2</c></rc>
    <rc><c>O </c><c>   2</c></rc>
    <rc><c>O </c><c>   2</c></rc>
    <rc><c>O </c><c>   2</c></rc>
    <rc><c>O </c><c>   2</c></rc>
    <rc><c>O </c><c>   2</c></rc>
    <rc><c>O </c><c>   2</c></rc>
    <rc><c>O </c><c>   2</c></rc>
    <rc><c>O </c><c>   2</c></rc>
    <rc><c>Pt</c><c>   3</c></rc>
    <rc><c>Pt</c><c>   3</c></rc>
    <rc><c>Pt</c><c>   3</c></rc>
    <rc><c>Pt</c><c>   3</c></rc>
    <rc><c>Pt</c><c>   3</c></rc>
    <rc><c>Pt</c><c>   3</c></rc>
    <rc><c>Pt</c><c>   3</c></rc>
    <rc><c>Pt</c><c>   3</c></rc>
    <rc><c>Pt</c><c>   3</c></rc>
    <rc><c>Pt</c><c>   3</c></rc>
    <rc><c>Pt</c><c>   3</c></rc>
    <rc><c>Pt</c><c>   3</c></rc>
    <rc><c>Pt</c><c>   3</c></rc>
    <rc><c>Pt</c><c>   3</c></rc>
    <rc><c>Pt</c><c>   3</c></rc>
    <rc><c>Pt</c><c>   3</c></rc>
    <rc><c>Pt</c><c>   3</c></rc>
    <rc><c>Pt</c><c>   3</c></rc>
    <rc><c>Pt</c><c>   3</c></rc>
    <rc><c>Pt</c><c>   3</c></rc>
    <rc><c>Pt</c><c>   3</c></rc>
    <rc><c>Pt</c><c>   3</c></rc>
    <rc><c>Pt</c><c>   3</c></rc>
    <rc><c>Pt</c><c>   3</c></rc>
    <rc><c>Pt</c><c>   3</c></rc>
    <rc><c>Pt</c><c>   3</c></rc>
    <rc><c>Pt</c><c>   3</c></rc>
    <rc><c>Pt</c><c>   3</c></rc>
    <rc><c>Pt</c><c>   3</c></rc>
    <rc><c>Pt</c><c>   3</c></rc>
    <rc><c>Pt</c><c>   3</c></rc>
    <rc><c>Pt</c><c>   3</c></rc>
    <rc><c>Pt</c><c>   3</c></rc>
    <rc><c>Pt</c><c>   3</c></rc>
    <rc><c>Pt</c><c>   3</c></rc>
    <rc><c>Pt</c><c>   3</c></rc>
   </set>
  </array>
  <array name="atomtypes" >
   <dimension dim="1">type</dimension>
   <field type="int">atomspertype</field>
   <field type="string">element</field>
   <field>mass</field>
   <field>valence</field>
   <field type="string">pseudopotential</field>
   <set>
    <rc><c>  48</c><c>H </c><c>      1.00000000</c><c>      1.00000000</c><c>  PAW_PBE H 15Jun2001                   </c></rc>
    <rc><c>  24</c><c>O </c><c>     16.00000000</c><c>      6.00000000</c><c>  PAW_PBE O 08Apr2002                   </c></rc>
    <rc><c>  36</c><c>Pt</c><c>    195.08000000</c><c>     10.00000000</c><c>  PAW_PBE Pt 04Feb2005                  </c></rc>
   </set>
  </array>
 </atominfo>
 <structure name="initialpos" >
  <crystal>
   <varray name="basis" >
    <v>       8.34588864       0.00000000       0.00000000 </v>
    <v>       0.00000000       9.63700211       0.00000000 </v>
    <v>       0.00000000       0.00000000      32.54292636 </v>
   </varray>
   <i name="volume">   2617.40629817 </i>
   <varray name="rec_basis" >
    <v>       0.11981948       0.00000000       0.00000000 </v>
    <v>       0.00000000       0.10376671       0.00000000 </v>
    <v>       0.00000000       0.00000000       0.03072864 </v>
   </varray>
  </crystal>
  <varray name="positions" >
   <v>       0.82987782       0.32893657       0.45626907 </v>
   <v>       0.18358552       0.13915953       0.53404626 </v>
   <v>       0.63749858       0.48722646       0.44630824 </v>
   <v>       0.76505479       0.10164196       0.44046232 </v>
   <v>       0.35559030       0.14464578       0.47968083 </v>
   <v>       0.39706373       0.19781595       0.43484001 </v>
   <v>       0.35486673       0.25048871       0.58975335 </v>
   <v>       0.98674522       0.24439557       0.45919843 </v>
   <v>       0.81728942       0.17846930       0.57774992 </v>
   <v>       0.12188353       0.02176257       0.50268372 </v>
   <v>       0.01328270       0.50779490       0.49130433 </v>
   <v>       0.76688814       0.49849788       0.55735146 </v>
   <v>       0.92950099       0.06074068       0.58183453 </v>
   <v>       0.87644820       0.82475833       0.54161484 </v>
   <v>       0.56791200       0.94382253       0.60964693 </v>
   <v>       0.17655779       0.29050858       0.58307598 </v>
   <v>       0.10723629       0.30753928       0.73063035 </v>
   <v>       0.26297113       0.20929135       0.72228877 </v>
   <v>       0.57678770       0.50471469       0.66041960 </v>
   <v>       0.43145067       0.85245248       0.81447282 </v>
   <v>       0.31852688       0.39539938       0.66916120 </v>
   <v>       0.48716086       0.00664387       0.67107255 </v>
   <v>       0.86079205       0.19792432       0.69457285 </v>
   <v>       0.78780883       0.34368172       0.70321726 </v>
   <v>       0.88687101       0.79772432       0.46395006 </v>
   <v>       0.26646632       0.85203031       0.46190029 </v>
   <v>       0.58499584       0.09016055       0.43742120 </v>
   <v>       0.80331425       0.56172203       0.43738646 </v>
   <v>       0.24678164       0.34736810       0.45777538 </v>
   <v>       0.21394966       0.48819187       0.43496350 </v>
   <v>       0.69822851       0.69755695       0.58379566 </v>
   <v>       0.73232810       0.83373308       0.43860562 </v>
   <v>       0.15645553       0.85869866       0.55985194 </v>
   <v>       0.29963182       0.72876961       0.43150231 </v>
   <v>       0.98386089       0.73642508       0.51181423 </v>
   <v>       0.38693224       0.97193514       0.59956836 </v>
   <v>       0.20575974       0.81904344       0.60297228 </v>
   <v>       0.12918582       0.55201164       0.52561380 </v>
   <v>       0.67930167       0.47320442       0.59601162 </v>
   <v>       0.82331105       0.79335963       0.60484938 </v>
   <v>       0.21956527       0.68014924       0.66874849 </v>
   <v>       0.05159259       0.73023500       0.68439287 </v>
   <v>       0.62209759       0.17882606       0.70762764 </v>
   <v>       0.73774371       0.59037316       0.66254328 </v>
   <v>       0.46847423       0.92833108       0.81031648 </v>
   <v>       0.28048723       0.46636380       0.62754882 </v>
   <v>       0.81640782       0.76578297       0.75333718 </v>
   <v>       0.69395958       0.83865880       0.72603719 </v>
   <v>       0.19910286       0.09743328       0.50696631 </v>
   <v>       0.73799912       0.47984270       0.43017420 </v>
   <v>       0.20918162       0.44253088       0.46189223 </v>
   <v>       0.87154636       0.23292252       0.46021623 </v>
   <v>       0.19181435       0.28236783       0.71160736 </v>
   <v>       0.67042290       0.52610544       0.57032257 </v>
   <v>       0.01710425       0.56399629       0.51879506 </v>
   <v>       0.28633383       0.30895456       0.57370380 </v>
   <v>       0.91975642       0.15733360       0.58874191 </v>
   <v>       0.69698959       0.49796240       0.65778934 </v>
   <v>       0.51914206       0.98176638       0.69955077 </v>
   <v>       0.83163009       0.26170834       0.71705586 </v>
   <v>       0.23025939       0.75990328       0.45407968 </v>
   <v>       0.68019277       0.02916295       0.43704695 </v>
   <v>       0.42637330       0.20880278       0.46394447 </v>
   <v>       0.81139458       0.75990551       0.44383707 </v>
   <v>       0.13951090       0.74845619       0.66502255 </v>
   <v>       0.48213239       0.01469457       0.61321159 </v>
   <v>       0.96320626       0.83179762       0.52216805 </v>
   <v>       0.71212222       0.79674098       0.59475071 </v>
   <v>       0.23795216       0.80889436       0.57433895 </v>
   <v>       0.52012228       0.13360900       0.71755281 </v>
   <v>       0.34281322       0.47883284       0.65282404 </v>
   <v>       0.75260371       0.74966499       0.72857479 </v>
   <v>       0.16666667       0.08333333       0.21910656 </v>
   <v>       0.50000000       0.08333333       0.21910656 </v>
   <v>       0.83333333       0.08333333       0.21910656 </v>
   <v>       0.00000000       0.33333333       0.21910656 </v>
   <v>       0.33333333       0.33333333       0.21910656 </v>
   <v>       0.66666667       0.33333333       0.21910656 </v>
   <v>       0.16666667       0.58333333       0.21910656 </v>
   <v>       0.50000000       0.58333333       0.21910656 </v>
   <v>       0.83333333       0.58333333       0.21910656 </v>
   <v>       0.00000000       0.83333333       0.21910656 </v>
   <v>       0.33333333       0.83333333       0.21910656 </v>
   <v>       0.66666667       0.83333333       0.21910656 </v>
   <v>       0.00000000       0.16666667       0.28890555 </v>
   <v>       0.33333333       0.16666667       0.28890555 </v>
   <v>       0.66666667       0.16666667       0.28890555 </v>
   <v>       0.16666667       0.41666667       0.28890555 </v>
   <v>       0.50000000       0.41666667       0.28890555 </v>
   <v>       0.83333333       0.41666667       0.28890555 </v>
   <v>       0.00000000       0.66666667       0.28890555 </v>
   <v>       0.33333333       0.66666667       0.28890555 </v>
   <v>       0.66666667       0.66666667       0.28890555 </v>
   <v>       0.16666667       0.91666667       0.28890555 </v>
   <v>       0.50000000       0.91666667       0.28890555 </v>
   <v>       0.83333333       0.91666667       0.28890555 </v>
   <v>       0.00988236       0.00559020       0.36056499 </v>
   <v>       0.33607073       0.00655748       0.36614563 </v>
   <v>       0.66893135       0.00583492       0.35933391 </v>
   <v>       0.16937191       0.25663271       0.36282662 </v>
   <v>       0.50007331       0.25483660       0.36073641 </v>
   <v>       0.83638093       0.25299764       0.36136653 </v>
   <v>       0.00016611       0.50285022       0.36107934 </v>
   <v>       0.33285016       0.50720068       0.36290396 </v>
   <v>       0.65766853       0.50221324       0.36009824 </v>
   <v>       0.16468228       0.75584069       0.36151038 </v>
   <v>       0.49423870       0.75842909       0.36034385 </v>
   <v>       0.83162384       0.75067490       0.36233011 </v>
  </varray>
  <varray name="selective"  type="logical" >
   <v type="logical" >  T  T  T </v>
   <v type="logical" >  T  T  T </v>
   <v type="logical" >  T  T  T </v>
   <v type="logical" >  T  T  T </v>
   <v type="logical" >  T  T  T </v>
   <v type="logical" >  T  T  T </v>
   <v type="logical" >  T  T  T </v>
   <v type="logical" >  T  T  T </v>
   <v type="logical" >  T  T  T </v>
   <v type="logical" >  T  T  T </v>
   <v type="logical" >  T  T  T </v>
   <v type="logical" >  T  T  T </v>
   <v type="logical" >  T  T  T </v>
   <v type="logical" >  T  T  T </v>
   <v type="logical" >  T  T  T </v>
   <v type="logical" >  T  T  T </v>
   <v type="logical" >  T  T  T </v>
   <v type="logical" >  T  T  T </v>
   <v type="logical" >  T  T  T </v>
   <v type="logical" >  T  T  T </v>
   <v type="logical" >  T  T  T </v>
   <v type="logical" >  T  T  T </v>
   <v type="logical" >  T  T  T </v>
   <v type="logical" >  T  T  T </v>
   <v type="logical" >  T  T  T </v>
   <v type="logical" >  T  T  T </v>
   <v type="logical" >  T  T  T </v>
   <v type="logical" >  T  T  T </v>
   <v type="logical" >  T  T  T </v>
   <v type="logical" >  T  T  T </v>
   <v type="logical" >  T  T  T </v>
   <v type="logical" >  T  T  T </v>
   <v type="logical" >  T  T  T </v>
   <v type="logical" >  T  T  T </v>
   <v type="logical" >  T  T  T </v>
   <v type="logical" >  T  T  T </v>
   <v type="logical" >  T  T  T </v>
   <v type="logical" >  T  T  T </v>
   <v type="logical" >  T  T  T </v>
   <v type="logical" >  T  T  T </v>
   <v type="logical" >  T  T  T </v>
   <v type="logical" >  T  T  T </v>
   <v type="logical" >  T  T  T </v>
   <v type="logical" >  T  T  T </v>
   <v type="logical" >  T  T  T </v>
   <v type="logical" >  T  T  T </v>
   <v type="logical" >  T  T  T </v>
   <v type="logical" >  T  T  T </v>
   <v type="logical" >  T  T  T </v>
   <v type="logical" >  T  T  T </v>
   <v type="logical" >  T  T  T </v>
   <v type="logical" >  T  T  T </v>
   <v type="logical" >  T  T  T </v>
   <v type="logical" >  T  T  T </v>
   <v type="logical" >  T  T  T </v>
   <v type="logical" >  T  T  T </v>
   <v type="logical" >  T  T  T </v>
   <v type="logical" >  T  T  T </v>
   <v type="logical" >  T  T  T </v>
   <v type="logical" >  T  T  T </v>
   <v type="logical" >  T  T  T </v>
   <v type="logical" >  T  T  T </v>
   <v type="logical" >  T  T  T </v>
   <v type="logical" >  T  T  T </v>
   <v type="logical" >  T  T  T </v>
   <v type="logical" >  T  T  T </v>
   <v type="logical" >  T  T  T </v>
   <v type="logical" >  T  T  T </v>
   <v type="logical" >  T  T  T </v>
   <v type="logical" >  T  T  T </v>
   <v type="logical" >  T  T  T </v>
   <v type="logical" >  T  T  T </v>
   <v type="logical" >  F  F  F </v>
   <v type="logical" >  F  F  F </v>
   <v type="logical" >  F  F  F </v>
   <v type="logical" >  F  F  F </v>
   <v type="logical" >  F  F  F </v>
   <v type="logical" >  F  F  F </v>
   <v type="logical" >  F  F  F </v>
   <v type="logical" >  F  F  F </v>
   <v type="logical" >  F  F  F </v>
   <v type="logical" >  F  F  F </v>
   <v type="logical" >  F  F  F </v>
   <v type="logical" >  F  F  F </v>
   <v type="logical" >  F  F  F </v>
   <v type="logical" >  F  F  F </v>
   <v type="logical" >  F  F  F </v>
   <v type="logical" >  F  F  F </v>
   <v type="logical" >  F  F  F </v>
   <v type="logical" >  F  F  F </v>
   <v type="logical" >  F  F  F </v>
   <v type="logical" >  F  F  F </v>
   <v type="logical" >  F  F  F </v>
   <v type="logical" >  F  F  F </v>
   <v type="logical" >  F  F  F </v>
   <v type="logical" >  F  F  F </v>
   <v type="logical" >  T  T  T </v>
   <v type="logical" >  T  T  T </v>
   <v type="logical" >  T  T  T </v>
   <v type="logical" >  T  T  T </v>
   <v type="logical" >  T  T  T </v>
   <v type="logical" >  T  T  T </v>
   <v type="logical" >  T  T  T </v>
   <v type="logical" >  T  T  T </v>
   <v type="logical" >  T  T  T </v>
   <v type="logical" >  T  T  T </v>
   <v type="logical" >  T  T  T </v>
   <v type="logical" >  T  T  T </v>
  </varray>
  <nose>
   <v>      -3.00000000       0.00000000       0.00010000       0.00010000 </v>
  </nose>
 </structure>
 <calculation>
  <scstep>
   <time name="dav">   26.85   26.88</time>
   <time name="total">   27.00   27.03</time>
   <dipole>
    <v name="dipole">      0.00000000       0.00000000       0.00010077 </v>
    <i name="Tr[quadrupol]">  -7548.22206161 </i>
    <i name="Echarged">      0.00000000 </i>
    <i name="Edipol_quadrupol">      0.00000000 </i>
    <i name="Eion">      0.00000000 </i>
   </dipole>
   <energy>
    <i name="alphaZ">    863.60088798 </i>
    <i name="ewald"> 206580.83505048 </i>
    <i name="hartreedc">-243347.02539536 </i>
    <i name="XCdc">    878.97726272 </i>
    <i name="pawpsdc">  33505.36643195 </i>
    <i name="pawaedc"> -32489.60540758 </i>
    <i name="eentropy">     -0.13569811 </i>
    <i name="bandstr">    513.49698161 </i>
    <i name="atom">  37193.95212048 </i>
    <i name="e_fr_energy">   3699.46223418 </i>
    <i name="e_wo_entrp">   3699.59793229 </i>
    <i name="e_0_energy">   3699.53008324 </i>
   </energy>
  </scstep>
  <scstep>
   <time name="dav">   31.25   31.29</time>
   <time name="total">   31.25   31.29</time>
   <dipole>
    <v name="dipole">      0.00000000       0.00000000       0.00010077 </v>
    <i name="Tr[quadrupol]">  -7548.22206161 </i>
    <i name="Echarged">      0.00000000 </i>
    <i name="Edipol_quadrupol">      0.00000000 </i>
    <i name="Eion">      0.00000000 </i>
   </dipole>
   <energy>
    <i name="e_fr_energy">   -143.70665907 </i>
    <i name="e_wo_entrp">   -143.51449552 </i>
    <i name="e_0_energy">   -143.61057729 </i>
   </energy>
  </scstep>
  <scstep>
   <time name="dav">   28.90   28.93</time>
   <time name="total">   28.90   28.94</time>
   <dipole>
    <v name="dipole">      0.00000000       0.00000000       0.00010077 </v>
    <i name="Tr[quadrupol]">  -7548.22206161 </i>
    <i name="Echarged">      0.00000000 </i>
    <i name="Edipol_quadrupol">      0.00000000 </i>
    <i name="Eion">      0.00000000 </i>
   </dipole>
   <energy>
    <i name="e_fr_energy">   -557.06596540 </i>
    <i name="e_wo_entrp">   -556.81376768 </i>
    <i name="e_0_energy">   -556.93986654 </i>
   </energy>
  </scstep>
  <scstep>
   <time name="dav">   31.17   31.21</time>
   <time name="total">   31.17   31.21</time>
   <dipole>
    <v name="dipole">      0.00000000       0.00000000       0.00010077 </v>
    <i name="Tr[quadrupol]">  -7548.22206161 </i>
    <i name="Echarged">      0.00000000 </i>
    <i name="Edipol_quadrupol">      0.00000000 </i>
    <i name="Eion">      0.00000000 </i>
   </dipole>
   <energy>
    <i name="e_fr_energy">   -572.09646583 </i>
    <i name="e_wo_entrp">   -571.82315611 </i>
    <i name="e_0_energy">   -571.95981097 </i>
   </energy>
  </scstep>
  <scstep>
   <time name="dav">   33.30   33.34</time>
   <time name="total">   34.10   34.14</time>
   <dipole>
    <v name="dipole">      0.00000000       0.00000000       0.00010077 </v>
    <i name="Tr[quadrupol]">  -7548.22206161 </i>
    <i name="Echarged">      0.00000000 </i>
    <i name="Edipol_quadrupol">      0.00000000 </i>
    <i name="Eion">      0.00000000 </i>
   </dipole>
   <energy>
    <i name="e_fr_energy">   -572.55266545 </i>
    <i name="e_wo_entrp">   -572.27884401 </i>
    <i name="e_0_energy">   -572.41575473 </i>
   </energy>
  </scstep>
  <scstep>
   <time name="dav">   30.14   30.17</time>
   <time name="total">   31.07   31.11</time>
   <dipole>
    <v name="dipole">      0.00000000       0.00000000       3.53954828 </v>
    <i name="Tr[quadrupol]">  -7552.73732348 </i>
    <i name="Echarged">      0.00000000 </i>
    <i name="Edipol_quadrupol">      0.00000000 </i>
    <i name="Eion">      0.00000000 </i>
   </dipole>
   <energy>
    <i name="e_fr_energy">   -633.64765757 </i>
    <i name="e_wo_entrp">   -633.50809686 </i>
    <i name="e_0_energy">   -633.57787722 </i>
   </energy>
  </scstep>
  <scstep>
   <time name="dav">   40.96   41.00</time>
   <time name="total">   41.89   41.94</time>
   <dipole>
    <v name="dipole">      0.00000000       0.00000000      -6.47062185 </v>
    <i name="Tr[quadrupol]">  -7531.42593460 </i>
    <i name="Echarged">      0.00000000 </i>
    <i name="Edipol_quadrupol">      0.00000000 </i>
    <i name="Eion">      0.00000000 </i>
   </dipole>
   <energy>
    <i name="e_fr_energy">   -858.03373027 </i>
    <i name="e_wo_entrp">   -857.77964434 </i>
    <i name="e_0_energy">   -857.90668730 </i>
   </energy>
  </scstep>
  <scstep>
   <time name="dav">   39.05   39.10</time>
   <time name="total">   39.98   40.03</time>
   <dipole>
    <v name="dipole">      0.00000000       0.00000000       9.75656588 </v>
    <i name="Tr[quadrupol]">  -7541.53871955 </i>
    <i name="Echarged">      0.00000000 </i>
    <i name="Edipol_quadrupol">      0.00000000 </i>
    <i name="Eion">      0.00000000 </i>
   </dipole>
   <energy>
    <i name="e_fr_energy">   -711.21116497 </i>
    <i name="e_wo_entrp">   -711.04821637 </i>
    <i name="e_0_energy">   -711.12969067 </i>
   </energy>
  </scstep>
  <scstep>
   <time name="dav">   29.59   29.63</time>
   <time name="total">   30.52   30.56</time>
   <dipole>
    <v name="dipole">      0.00000000       0.00000000       9.62631353 </v>
    <i name="Tr[quadrupol]">  -7544.75297417 </i>
    <i name="Echarged">      0.00000000 </i>
    <i name="Edipol_quadrupol">      0.00000000 </i>
    <i name="Eion">      0.00000000 </i>
   </dipole>
   <energy>
    <i name="e_fr_energy">   -872.98685147 </i>
    <i name="e_wo_entrp">   -872.77787107 </i>
    <i name="e_0_energy">   -872.88236127 </i>
   </energy>
  </scstep>
  <scstep>
   <time name="dav">   32.33   32.37</time>
   <time name="total">   33.27   33.31</time>
   <dipole>
    <v name="dipole">      0.00000000       0.00000000       7.59182836 </v>
    <i name="Tr[quadrupol]">  -7521.60253956 </i>
    <i name="Echarged">      0.00000000 </i>
    <i name="Edipol_quadrupol">      0.00000000 </i>
    <i name="Eion">      0.00000000 </i>
   </dipole>
   <energy>
    <i name="e_fr_energy">   -687.23420326 </i>
    <i name="e_wo_entrp">   -687.05827213 </i>
    <i name="e_0_energy">   -687.14623769 </i>
   </energy>
  </scstep>
  <scstep>
   <time name="dav">   30.91   30.95</time>
   <time name="total">   31.84   31.88</time>
   <dipole>
    <v name="dipole">      0.00000000       0.00000000       7.82773161 </v>
    <i name="Tr[quadrupol]">  -7516.02920087 </i>
    <i name="Echarged">      0.00000000 </i>
    <i name="Edipol_quadrupol">      0.00000000 </i>
    <i name="Eion">      0.00000000 </i>
   </dipole>
   <energy>
    <i name="e_fr_energy">   -653.39747640 </i>
    <i name="e_wo_entrp">   -653.21931117 </i>
    <i name="e_0_energy">   -653.30839379 </i>
   </energy>
  </scstep>
  <scstep>
   <time name="dav">   31.09   31.13</time>
   <time name="total">   32.02   32.06</time>
   <dipole>
    <v name="dipole">      0.00000000       0.00000000       8.53859895 </v>
    <i name="Tr[quadrupol]">  -7503.93903024 </i>
    <i name="Echarged">      0.00000000 </i>
    <i name="Edipol_quadrupol">      0.00000000 </i>
    <i name="Eion">      0.00000000 </i>
   </dipole>
   <energy>
    <i name="e_fr_energy">   -594.35157241 </i>
    <i name="e_wo_entrp">   -594.05549165 </i>
    <i name="e_0_energy">   -594.20353203 </i>
   </energy>
  </scstep>
  <scstep>
   <time name="dav">   30.61   30.65</time>
   <time name="total">   31.55   31.59</time>
   <dipole>
    <v name="dipole">      0.00000000       0.00000000       7.90658129 </v>
    <i name="Tr[quadrupol]">  -7498.38916859 </i>
    <i name="Echarged">      0.00000000 </i>
    <i name="Edipol_quadrupol">      0.00000000 </i>
    <i name="Eion">      0.00000000 </i>
   </dipole>
   <energy>
    <i name="e_fr_energy">   -562.27977622 </i>
    <i name="e_wo_entrp">   -561.97276743 </i>
    <i name="e_0_energy">   -562.12627182 </i>
   </energy>
  </scstep>
  <scstep>
   <time name="dav">   29.13   29.17</time>
   <time name="total">   30.07   30.11</time>
   <dipole>
    <v name="dipole">      0.00000000       0.00000000       7.02835207 </v>
    <i name="Tr[quadrupol]">  -7482.47508765 </i>
    <i name="Echarged">      0.00000000 </i>
    <i name="Edipol_quadrupol">      0.00000000 </i>
    <i name="Eion">      0.00000000 </i>
   </dipole>
   <energy>
    <i name="e_fr_energy">   -553.12401576 </i>
    <i name="e_wo_entrp">   -552.67011508 </i>
    <i name="e_0_energy">   -552.89706542 </i>
   </energy>
  </scstep>
  <scstep>
   <time name="dav">   30.60   30.63</time>
   <time name="total">   31.53   31.57</time>
   <dipole>
    <v name="dipole">      0.00000000       0.00000000       6.08485228 </v>
    <i name="Tr[quadrupol]">  -7483.03593311 </i>
    <i name="Echarged">      0.00000000 </i>
    <i name="Edipol_quadrupol">      0.00000000 </i>
    <i name="Eion">      0.00000000 </i>
   </dipole>
   <energy>
    <i name="e_fr_energy">   -553.84753921 </i>
    <i name="e_wo_entrp">   -553.51323949 </i>
    <i name="e_0_energy">   -553.68038935 </i>
   </energy>
  </scstep>
  <scstep>
   <time name="dav">   30.31   30.35</time>
   <time name="total">   31.26   31.30</time>
   <dipole>
    <v name="dipole">      0.00000000       0.00000000       5.31008636 </v>
    <i name="Tr[quadrupol]">  -7482.09586485 </i>
    <i name="Echarged">      0.00000000 </i>
    <i name="Edipol_quadrupol">      0.00000000 </i>
    <i name="Eion">      0.00000000 </i>
   </dipole>
   <energy>
    <i name="e_fr_energy">   -552.03760344 </i>
    <i name="e_wo_entrp">   -551.70854696 </i>
    <i name="e_0_energy">   -551.87307520 </i>
   </energy>
  </scstep>
  <scstep>
   <time name="dav">   30.39   30.43</time>
   <time name="total">   31.34   31.38</time>
   <dipole>
    <v name="dipole">      0.00000000       0.00000000       4.86844237 </v>
    <i name="Tr[quadrupol]">  -7485.16741175 </i>
    <i name="Echarged">      0.00000000 </i>
    <i name="Edipol_quadrupol">      0.00000000 </i>
    <i name="Eion">      0.00000000 </i>
   </dipole>
   <energy>
    <i name="e_fr_energy">   -551.74369213 </i>
    <i name="e_wo_entrp">   -551.41003552 </i>
    <i name="e_0_energy">   -551.57686382 </i>
   </energy>
  </scstep>
  <scstep>
   <time name="dav">   31.51   31.55</time>
   <time name="total">   32.46   32.51</time>
   <dipole>
    <v name="dipole">      0.00000000       0.00000000       2.77713332 </v>
    <i name="Tr[quadrupol]">  -7491.33802583 </i>
    <i name="Echarged">      0.00000000 </i>
    <i name="Edipol_quadrupol">      0.00000000 </i>
    <i name="Eion">      0.00000000 </i>
   </dipole>
   <energy>
    <i name="e_fr_energy">   -561.50298419 </i>
    <i name="e_wo_entrp">   -561.12653695 </i>
    <i name="e_0_energy">   -561.31476057 </i>
   </energy>
  </scstep>
  <scstep>
   <time name="dav">   32.01   32.06</time>
   <time name="total">   32.98   33.02</time>
   <dipole>
    <v name="dipole">      0.00000000       0.00000000       1.77246196 </v>
    <i name="Tr[quadrupol]">  -7495.54299585 </i>
    <i name="Echarged">      0.00000000 </i>
    <i name="Edipol_quadrupol">      0.00000000 </i>
    <i name="Eion">      0.00000000 </i>
   </dipole>
   <energy>
    <i name="e_fr_energy">   -576.11294830 </i>
    <i name="e_wo_entrp">   -575.71930192 </i>
    <i name="e_0_energy">   -575.91612511 </i>
   </energy>
  </scstep>
  <scstep>
   <time name="dav">   30.72   30.76</time>
   <time name="total">   31.68   31.72</time>
   <dipole>
    <v name="dipole">      0.00000000       0.00000000       1.61930729 </v>
    <i name="Tr[quadrupol]">  -7496.43623538 </i>
    <i name="Echarged">      0.00000000 </i>
    <i name="Edipol_quadrupol">      0.00000000 </i>
    <i name="Eion">      0.00000000 </i>
   </dipole>
   <energy>
    <i name="e_fr_energy">   -578.87682817 </i>
    <i name="e_wo_entrp">   -578.48235139 </i>
    <i name="e_0_energy">   -578.67958978 </i>
   </energy>
  </scstep>
  <scstep>
   <time name="dav">   31.59   31.63</time>
   <time name="total">   32.55   32.60</time>
   <dipole>
    <v name="dipole">      0.00000000       0.00000000       1.63525409 </v>
    <i name="Tr[quadrupol]">  -7496.43167004 </i>
    <i name="Echarged">      0.00000000 </i>
    <i name="Edipol_quadrupol">      0.00000000 </i>
    <i name="Eion">      0.00000000 </i>
   </dipole>
   <energy>
    <i name="e_fr_energy">   -578.06606395 </i>
    <i name="e_wo_entrp">   -577.67695375 </i>
    <i name="e_0_energy">   -577.87150885 </i>
   </energy>
  </scstep>
  <scstep>
   <time name="dav">   30.42   30.46</time>
   <time name="total">   31.38   31.43</time>
   <dipole>
    <v name="dipole">      0.00000000       0.00000000       1.67764138 </v>
    <i name="Tr[quadrupol]">  -7496.54853943 </i>
    <i name="Echarged">      0.00000000 </i>
    <i name="Edipol_quadrupol">      0.00000000 </i>
    <i name="Eion">      0.00000000 </i>
   </dipole>
   <energy>
    <i name="e_fr_energy">   -576.61234355 </i>
    <i name="e_wo_entrp">   -576.21706340 </i>
    <i name="e_0_energy">   -576.41470347 </i>
   </energy>
  </scstep>
  <scstep>
   <time name="dav">   29.24   29.28</time>
   <time name="total">   30.20   30.24</time>
   <dipole>
    <v name="dipole">      0.00000000       0.00000000       1.68833937 </v>
    <i name="Tr[quadrupol]">  -7496.05739578 </i>
    <i name="Echarged">      0.00000000 </i>
    <i name="Edipol_quadrupol">      0.00000000 </i>
    <i name="Eion">      0.00000000 </i>
   </dipole>
   <energy>
    <i name="e_fr_energy">   -577.89486729 </i>
    <i name="e_wo_entrp">   -577.50942840 </i>
    <i name="e_0_energy">   -577.70214784 </i>
   </energy>
  </scstep>
  <scstep>
   <time name="dav">   30.03   30.07</time>
   <time name="total">   31.00   31.04</time>
   <dipole>
    <v name="dipole">      0.00000000       0.00000000       1.81921990 </v>
    <i name="Tr[quadrupol]">  -7494.44616267 </i>
    <i name="Echarged">      0.00000000 </i>
    <i name="Edipol_quadrupol">      0.00000000 </i>
    <i name="Eion">      0.00000000 </i>
   </dipole>
   <energy>
    <i name="e_fr_energy">   -580.65642612 </i>
    <i name="e_wo_entrp">   -580.27881720 </i>
    <i name="e_0_energy">   -580.46762166 </i>
   </energy>
  </scstep>
  <scstep>
   <time name="dav">   29.41   29.45</time>
   <time name="total">   30.38   30.42</time>
   <dipole>
    <v name="dipole">      0.00000000       0.00000000       1.84429718 </v>
    <i name="Tr[quadrupol]">  -7494.15306066 </i>
    <i name="Echarged">      0.00000000 </i>
    <i name="Edipol_quadrupol">      0.00000000 </i>
    <i name="Eion">      0.00000000 </i>
   </dipole>
   <energy>
    <i name="e_fr_energy">   -580.86270155 </i>
    <i name="e_wo_entrp">   -580.48425242 </i>
    <i name="e_0_energy">   -580.67347698 </i>
   </energy>
  </scstep>
  <scstep>
   <time name="dav">   29.15   29.18</time>
   <time name="total">   30.10   30.14</time>
   <dipole>
    <v name="dipole">      0.00000000       0.00000000       1.44401647 </v>
    <i name="Tr[quadrupol]">  -7498.80788645 </i>
    <i name="Echarged">      0.00000000 </i>
    <i name="Edipol_quadrupol">      0.00000000 </i>
    <i name="Eion">      0.00000000 </i>
   </dipole>
   <energy>
    <i name="e_fr_energy">   -582.91895388 </i>
    <i name="e_wo_entrp">   -582.53709781 </i>
    <i name="e_0_energy">   -582.72802585 </i>
   </energy>
  </scstep>
  <scstep>
   <time name="dav">   31.80   31.84</time>
   <time name="total">   32.76   32.80</time>
   <dipole>
    <v name="dipole">      0.00000000       0.00000000       0.97416861 </v>
    <i name="Tr[quadrupol]">  -7504.04546307 </i>
    <i name="Echarged">      0.00000000 </i>
    <i name="Edipol_quadrupol">      0.00000000 </i>
    <i name="Eion">      0.00000000 </i>
   </dipole>
   <energy>
    <i name="e_fr_energy">   -591.03898527 </i>
    <i name="e_wo_entrp">   -590.64984729 </i>
    <i name="e_0_energy">   -590.84441628 </i>
   </energy>
  </scstep>
  <scstep>
   <time name="dav">   31.80   31.84</time>
   <time name="total">   32.76   32.81</time>
   <dipole>
    <v name="dipole">      0.00000000       0.00000000       0.53950625 </v>
    <i name="Tr[quadrupol]">  -7509.86467025 </i>
    <i name="Echarged">      0.00000000 </i>
    <i name="Edipol_quadrupol">      0.00000000 </i>
    <i name="Eion">      0.00000000 </i>
   </dipole>
   <energy>
    <i name="e_fr_energy">   -595.30919598 </i>
    <i name="e_wo_entrp">   -594.90755160 </i>
    <i name="e_0_energy">   -595.10837379 </i>
   </energy>
  </scstep>
  <scstep>
   <time name="dav">   32.31   32.34</time>
   <time name="total">   33.27   33.31</time>
   <dipole>
    <v name="dipole">      0.00000000       0.00000000       0.29760849 </v>
    <i name="Tr[quadrupol]">  -7513.53182739 </i>
    <i name="Echarged">      0.00000000 </i>
    <i name="Edipol_quadrupol">      0.00000000 </i>
    <i name="Eion">      0.00000000 </i>
   </dipole>
   <energy>
    <i name="e_fr_energy">   -596.51339794 </i>
    <i name="e_wo_entrp">   -596.11206702 </i>
    <i name="e_0_energy">   -596.31273248 </i>
   </energy>
  </scstep>
  <scstep>
   <time name="dav">   31.57   31.61</time>
   <time name="total">   32.53   32.58</time>
   <dipole>
    <v name="dipole">      0.00000000       0.00000000       0.21966700 </v>
    <i name="Tr[quadrupol]">  -7514.74238081 </i>
    <i name="Echarged">      0.00000000 </i>
    <i name="Edipol_quadrupol">      0.00000000 </i>
    <i name="Eion">      0.00000000 </i>
   </dipole>
   <energy>
    <i name="e_fr_energy">   -597.07388805 </i>
    <i name="e_wo_entrp">   -596.67375052 </i>
    <i name="e_0_energy">   -596.87381928 </i>
   </energy>
  </scstep>
  <scstep>
   <time name="dav">   31.65   31.69</time>
   <time name="total">   32.63   32.67</time>
   <dipole>
    <v name="dipole">      0.00000000       0.00000000      -0.01043910 </v>
    <i name="Tr[quadrupol]">  -7518.47948908 </i>
    <i name="Echarged">      0.00000000 </i>
    <i name="Edipol_quadrupol">      0.00000000 </i>
    <i name="Eion">      0.00000000 </i>
   </dipole>
   <energy>
    <i name="e_fr_energy">   -599.08098426 </i>
    <i name="e_wo_entrp">   -598.67907501 </i>
    <i name="e_0_energy">   -598.88002963 </i>
   </energy>
  </scstep>
  <scstep>
   <time name="dav">   32.37   32.41</time>
   <time name="total">   33.34   33.39</time>
   <dipole>
    <v name="dipole">      0.00000000       0.00000000      -0.32895712 </v>
    <i name="Tr[quadrupol]">  -7524.30088199 </i>
    <i name="Echarged">      0.00000000 </i>
    <i name="Edipol_quadrupol">      0.00000000 </i>
    <i name="Eion">      0.00000000 </i>
   </dipole>
   <energy>
    <i name="e_fr_energy">   -602.22037555 </i>
    <i name="e_wo_entrp">   -601.80979420 </i>
    <i name="e_0_energy">   -602.01508488 </i>
   </energy>
  </scstep>
  <scstep>
   <time name="dav">   32.90   32.94</time>
   <time name="total">   33.87   33.92</time>
   <dipole>
    <v name="dipole">      0.00000000       0.00000000      -0.69808926 </v>
    <i name="Tr[quadrupol]">  -7531.11861163 </i>
    <i name="Echarged">      0.00000000 </i>
    <i name="Edipol_quadrupol">      0.00000000 </i>
    <i name="Eion">      0.00000000 </i>
   </dipole>
   <energy>
    <i name="e_fr_energy">   -607.30231657 </i>
    <i name="e_wo_entrp">   -606.88168132 </i>
    <i name="e_0_energy">   -607.09199895 </i>
   </energy>
  </scstep>
  <scstep>
   <time name="dav">   32.93   32.98</time>
   <time name="total">   33.91   33.96</time>
   <dipole>
    <v name="dipole">      0.00000000       0.00000000      -0.91292864 </v>
    <i name="Tr[quadrupol]">  -7534.82193353 </i>
    <i name="Echarged">      0.00000000 </i>
    <i name="Edipol_quadrupol">      0.00000000 </i>
    <i name="Eion">      0.00000000 </i>
   </dipole>
   <energy>
    <i name="e_fr_energy">   -611.05299077 </i>
    <i name="e_wo_entrp">   -610.63272391 </i>
    <i name="e_0_energy">   -610.84285734 </i>
   </energy>
  </scstep>
  <scstep>
   <time name="dav">   29.36   29.40</time>
   <time name="total">   30.33   30.37</time>
   <dipole>
    <v name="dipole">      0.00000000       0.00000000      -0.91092053 </v>
    <i name="Tr[quadrupol]">  -7534.97654517 </i>
    <i name="Echarged">      0.00000000 </i>
    <i name="Edipol_quadrupol">      0.00000000 </i>
    <i name="Eion">      0.00000000 </i>
   </dipole>
   <energy>
    <i name="e_fr_energy">   -610.62424912 </i>
    <i name="e_wo_entrp">   -610.20176564 </i>
    <i name="e_0_energy">   -610.41300738 </i>
   </energy>
  </scstep>
  <scstep>
   <time name="dav">   31.92   31.96</time>
   <time name="total">   32.90   32.95</time>
   <dipole>
    <v name="dipole">      0.00000000       0.00000000      -0.86885241 </v>
    <i name="Tr[quadrupol]">  -7534.60290531 </i>
    <i name="Echarged">      0.00000000 </i>
    <i name="Edipol_quadrupol">      0.00000000 </i>
    <i name="Eion">      0.00000000 </i>
   </dipole>
   <energy>
    <i name="e_fr_energy">   -609.24839629 </i>
    <i name="e_wo_entrp">   -608.82138889 </i>
    <i name="e_0_energy">   -609.03489259 </i>
   </energy>
  </scstep>
  <scstep>
   <time name="dav">   29.61   29.64</time>
   <time name="total">   30.59   30.63</time>
   <dipole>
    <v name="dipole">      0.00000000       0.00000000      -0.86902378 </v>
    <i name="Tr[quadrupol]">  -7534.61605075 </i>
    <i name="Echarged">      0.00000000 </i>
    <i name="Edipol_quadrupol">      0.00000000 </i>
    <i name="Eion">      0.00000000 </i>
   </dipole>
   <energy>
    <i name="e_fr_energy">   -609.20071850 </i>
    <i name="e_wo_entrp">   -608.77351910 </i>
    <i name="e_0_energy">   -608.98711880 </i>
   </energy>
  </scstep>
  <scstep>
   <time name="dav">   32.73   32.77</time>
   <time name="total">   33.71   33.76</time>
   <dipole>
    <v name="dipole">      0.00000000       0.00000000      -0.82612772 </v>
    <i name="Tr[quadrupol]">  -7534.16613832 </i>
    <i name="Echarged">      0.00000000 </i>
    <i name="Edipol_quadrupol">      0.00000000 </i>
    <i name="Eion">      0.00000000 </i>
   </dipole>
   <energy>
    <i name="e_fr_energy">   -606.75676411 </i>
    <i name="e_wo_entrp">   -606.32698595 </i>
    <i name="e_0_energy">   -606.54187503 </i>
   </energy>
  </scstep>
  <scstep>
   <time name="dav">   34.55   34.60</time>
   <time name="total">   35.52   35.57</time>
   <dipole>
    <v name="dipole">      0.00000000       0.00000000      -0.04127517 </v>
    <i name="Tr[quadrupol]">  -7521.99464962 </i>
    <i name="Echarged">      0.00000000 </i>
    <i name="Edipol_quadrupol">      0.00000000 </i>
    <i name="Eion">      0.00000000 </i>
   </dipole>
   <energy>
    <i name="e_fr_energy">   -592.16591393 </i>
    <i name="e_wo_entrp">   -591.77723954 </i>
    <i name="e_0_energy">   -591.97157674 </i>
   </energy>
  </scstep>
  <scstep>
   <time name="dav">   33.50   33.54</time>
   <time name="total">   34.47   34.52</time>
   <dipole>
    <v name="dipole">      0.00000000       0.00000000       1.71294829 </v>
    <i name="Tr[quadrupol]">  -7496.34673769 </i>
    <i name="Echarged">      0.00000000 </i>
    <i name="Edipol_quadrupol">      0.00000000 </i>
    <i name="Eion">      0.00000000 </i>
   </dipole>
   <energy>
    <i name="e_fr_energy">   -552.83445238 </i>
    <i name="e_wo_entrp">   -552.40255113 </i>
    <i name="e_0_energy">   -552.61850176 </i>
   </energy>
  </scstep>
  <scstep>
   <time name="dav">   31.77   31.82</time>
   <time name="total">   32.73   32.78</time>
   <dipole>
    <v name="dipole">      0.00000000       0.00000000       2.91586535 </v>
    <i name="Tr[quadrupol]">  -7478.44156550 </i>
    <i name="Echarged">      0.00000000 </i>
    <i name="Edipol_quadrupol">      0.00000000 </i>
    <i name="Eion">      0.00000000 </i>
   </dipole>
   <energy>
    <i name="e_fr_energy">   -538.18165630 </i>
    <i name="e_wo_entrp">   -537.77065963 </i>
    <i name="e_0_energy">   -537.97615796 </i>
   </energy>
  </scstep>
  <scstep>
   <time name="dav">   31.58   31.62</time>
   <time name="total">   32.54   32.58</time>
   <dipole>
    <v name="dipole">      0.00000000       0.00000000       3.71659356 </v>
    <i name="Tr[quadrupol]">  -7465.94819433 </i>
    <i name="Echarged">      0.00000000 </i>
    <i name="Edipol_quadrupol">      0.00000000 </i>
    <i name="Eion">      0.00000000 </i>
   </dipole>
   <energy>
    <i name="e_fr_energy">   -534.98617390 </i>
    <i name="e_wo_entrp">   -534.57276936 </i>
    <i name="e_0_energy">   -534.77947163 </i>
   </energy>
  </scstep>
  <scstep>
   <time name="dav">   29.22   29.28</time>
   <time name="total">   30.18   30.23</time>
   <dipole>
    <v name="dipole">      0.00000000       0.00000000       3.74685072 </v>
    <i name="Tr[quadrupol]">  -7466.04056247 </i>
    <i name="Echarged">      0.00000000 </i>
    <i name="Edipol_quadrupol">      0.00000000 </i>
    <i name="Eion">      0.00000000 </i>
   </dipole>
   <energy>
    <i name="e_fr_energy">   -534.74722427 </i>
    <i name="e_wo_entrp">   -534.33450410 </i>
    <i name="e_0_energy">   -534.54086419 </i>
   </energy>
  </scstep>
  <scstep>
   <time name="dav">   30.18   30.22</time>
   <time name="total">   31.14   31.18</time>
   <dipole>
    <v name="dipole">      0.00000000       0.00000000       3.81130468 </v>
    <i name="Tr[quadrupol]">  -7467.44127882 </i>
    <i name="Echarged">      0.00000000 </i>
    <i name="Edipol_quadrupol">      0.00000000 </i>
    <i name="Eion">      0.00000000 </i>
   </dipole>
   <energy>
    <i name="e_fr_energy">   -533.65115177 </i>
    <i name="e_wo_entrp">   -533.24578735 </i>
    <i name="e_0_energy">   -533.44846956 </i>
   </energy>
  </scstep>
  <scstep>
   <time name="dav">   33.49   33.52</time>
   <time name="total">   34.44   34.47</time>
   <dipole>
    <v name="dipole">      0.00000000       0.00000000       4.86729482 </v>
    <i name="Tr[quadrupol]">  -7458.07378009 </i>
    <i name="Echarged">      0.00000000 </i>
    <i name="Edipol_quadrupol">      0.00000000 </i>
    <i name="Eion">      0.00000000 </i>
   </dipole>
   <energy>
    <i name="e_fr_energy">   -532.65842495 </i>
    <i name="e_wo_entrp">   -532.24741940 </i>
    <i name="e_0_energy">   -532.45292217 </i>
   </energy>
  </scstep>
  <scstep>
   <time name="dav">   32.36   32.39</time>
   <time name="total">   33.31   33.35</time>
   <dipole>
    <v name="dipole">      0.00000000       0.00000000       5.54629883 </v>
    <i name="Tr[quadrupol]">  -7453.18211483 </i>
    <i name="Echarged">      0.00000000 </i>
    <i name="Edipol_quadrupol">      0.00000000 </i>
    <i name="Eion">      0.00000000 </i>
   </dipole>
   <energy>
    <i name="e_fr_energy">   -533.65979002 </i>
    <i name="e_wo_entrp">   -533.26100891 </i>
    <i name="e_0_energy">   -533.46039946 </i>
   </energy>
  </scstep>
  <scstep>
   <time name="dav">   28.69   28.71</time>
   <time name="total">   29.64   29.66</time>
   <dipole>
    <v name="dipole">      0.00000000       0.00000000       5.58362177 </v>
    <i name="Tr[quadrupol]">  -7452.83095133 </i>
    <i name="Echarged">      0.00000000 </i>
    <i name="Edipol_quadrupol">      0.00000000 </i>
    <i name="Eion">      0.00000000 </i>
   </dipole>
   <energy>
    <i name="e_fr_energy">   -533.74136783 </i>
    <i name="e_wo_entrp">   -533.34285274 </i>
    <i name="e_0_energy">   -533.54211028 </i>
   </energy>
  </scstep>
  <scstep>
   <time name="dav">   36.35   36.39</time>
   <time name="total">   37.31   37.35</time>
   <dipole>
    <v name="dipole">      0.00000000       0.00000000       5.63211988 </v>
    <i name="Tr[quadrupol]">  -7452.09303610 </i>
    <i name="Echarged">      0.00000000 </i>
    <i name="Edipol_quadrupol">      0.00000000 </i>
    <i name="Eion">      0.00000000 </i>
   </dipole>
   <energy>
    <i name="e_fr_energy">   -533.88310265 </i>
    <i name="e_wo_entrp">   -533.48430842 </i>
    <i name="e_0_energy">   -533.68370554 </i>
   </energy>
  </scstep>
  <scstep>
   <time name="dav">   30.30   30.33</time>
   <time name="total">   31.25   31.28</time>
   <dipole>
    <v name="dipole">      0.00000000       0.00000000       5.10604435 </v>
    <i name="Tr[quadrupol]">  -7462.87466608 </i>
    <i name="Echarged">      0.00000000 </i>
    <i name="Edipol_quadrupol">      0.00000000 </i>
    <i name="Eion">      0.00000000 </i>
   </dipole>
   <energy>
    <i name="e_fr_energy">   -531.62006091 </i>
    <i name="e_wo_entrp">   -531.22705280 </i>
    <i name="e_0_energy">   -531.42355685 </i>
   </energy>
  </scstep>
  <scstep>
   <time name="dav">   28.32   28.34</time>
   <time name="total">   29.27   29.30</time>
   <dipole>
    <v name="dipole">      0.00000000       0.00000000       4.79652598 </v>
    <i name="Tr[quadrupol]">  -7474.41249723 </i>
    <i name="Echarged">      0.00000000 </i>
    <i name="Edipol_quadrupol">      0.00000000 </i>
    <i name="Eion">      0.00000000 </i>
   </dipole>
   <energy>
    <i name="e_fr_energy">   -530.26562779 </i>
    <i name="e_wo_entrp">   -529.87773851 </i>
    <i name="e_0_energy">   -530.07168315 </i>
   </energy>
  </scstep>
  <scstep>
   <time name="dav">   28.79   28.82</time>
   <time name="total">   29.74   29.77</time>
   <dipole>
    <v name="dipole">      0.00000000       0.00000000       3.26059581 </v>
    <i name="Tr[quadrupol]">  -7502.09044698 </i>
    <i name="Echarged">      0.00000000 </i>
    <i name="Edipol_quadrupol">      0.00000000 </i>
    <i name="Eion">      0.00000000 </i>
   </dipole>
   <energy>
    <i name="e_fr_energy">   -531.27393870 </i>
    <i name="e_wo_entrp">   -530.89793263 </i>
    <i name="e_0_energy">   -531.08593567 </i>
   </energy>
  </scstep>
  <scstep>
   <time name="dav">   27.94   27.97</time>
   <time name="total">   28.89   28.92</time>
   <dipole>
    <v name="dipole">      0.00000000       0.00000000       3.33856287 </v>
    <i name="Tr[quadrupol]">  -7500.58520099 </i>
    <i name="Echarged">      0.00000000 </i>
    <i name="Edipol_quadrupol">      0.00000000 </i>
    <i name="Eion">      0.00000000 </i>
   </dipole>
   <energy>
    <i name="e_fr_energy">   -529.72392198 </i>
    <i name="e_wo_entrp">   -529.30512208 </i>
    <i name="e_0_energy">   -529.51452203 </i>
   </energy>
  </scstep>
  <scstep>
   <time name="dav">   27.57   27.59</time>
   <time name="total">   28.52   28.55</time>
   <dipole>
    <v name="dipole">      0.00000000       0.00000000       3.57266760 </v>
    <i name="Tr[quadrupol]">  -7497.93794627 </i>
    <i name="Echarged">      0.00000000 </i>
    <i name="Edipol_quadrupol">      0.00000000 </i>
    <i name="Eion">      0.00000000 </i>
   </dipole>
   <energy>
    <i name="e_fr_energy">   -530.09086964 </i>
    <i name="e_wo_entrp">   -529.70434353 </i>
    <i name="e_0_energy">   -529.89760659 </i>
   </energy>
  </scstep>
  <scstep>
   <time name="dav">   28.56   28.59</time>
   <time name="total">   29.52   29.54</time>
   <dipole>
    <v name="dipole">      0.00000000       0.00000000       3.74401506 </v>
    <i name="Tr[quadrupol]">  -7492.44977621 </i>
    <i name="Echarged">      0.00000000 </i>
    <i name="Edipol_quadrupol">      0.00000000 </i>
    <i name="Eion">      0.00000000 </i>
   </dipole>
   <energy>
    <i name="e_fr_energy">   -528.43443694 </i>
    <i name="e_wo_entrp">   -528.00599411 </i>
    <i name="e_0_energy">   -528.22021552 </i>
   </energy>
  </scstep>
  <scstep>
   <time name="dav">   27.94   27.96</time>
   <time name="total">   28.89   28.92</time>
   <dipole>
    <v name="dipole">      0.00000000       0.00000000       3.77911352 </v>
    <i name="Tr[quadrupol]">  -7493.06037140 </i>
    <i name="Echarged">      0.00000000 </i>
    <i name="Edipol_quadrupol">      0.00000000 </i>
    <i name="Eion">      0.00000000 </i>
   </dipole>
   <energy>
    <i name="e_fr_energy">   -528.44969925 </i>
    <i name="e_wo_entrp">   -528.00839289 </i>
    <i name="e_0_energy">   -528.22904607 </i>
   </energy>
  </scstep>
  <scstep>
   <time name="dav">   30.75   30.78</time>
   <time name="total">   31.70   31.74</time>
   <dipole>
    <v name="dipole">      0.00000000       0.00000000       3.59688038 </v>
    <i name="Tr[quadrupol]">  -7484.91018582 </i>
    <i name="Echarged">      0.00000000 </i>
    <i name="Edipol_quadrupol">      0.00000000 </i>
    <i name="Eion">      0.00000000 </i>
   </dipole>
   <energy>
    <i name="e_fr_energy">   -529.08466607 </i>
    <i name="e_wo_entrp">   -528.64519771 </i>
    <i name="e_0_energy">   -528.86493189 </i>
   </energy>
  </scstep>
  <scstep>
   <time name="dav">   27.86   27.89</time>
   <time name="total">   28.81   28.84</time>
   <dipole>
    <v name="dipole">      0.00000000       0.00000000       3.58744921 </v>
    <i name="Tr[quadrupol]">  -7484.95937224 </i>
    <i name="Echarged">      0.00000000 </i>
    <i name="Edipol_quadrupol">      0.00000000 </i>
    <i name="Eion">      0.00000000 </i>
   </dipole>
   <energy>
    <i name="e_fr_energy">   -528.98302064 </i>
    <i name="e_wo_entrp">   -528.53762228 </i>
    <i name="e_0_energy">   -528.76032146 </i>
   </energy>
  </scstep>
  <scstep>
   <time name="dav">   30.01   30.05</time>
   <time name="total">   30.97   31.01</time>
   <dipole>
    <v name="dipole">      0.00000000       0.00000000       3.70955549 </v>
    <i name="Tr[quadrupol]">  -7484.12489024 </i>
    <i name="Echarged">      0.00000000 </i>
    <i name="Edipol_quadrupol">      0.00000000 </i>
    <i name="Eion">      0.00000000 </i>
   </dipole>
   <energy>
    <i name="e_fr_energy">   -529.17444628 </i>
    <i name="e_wo_entrp">   -528.73691152 </i>
    <i name="e_0_energy">   -528.95567890 </i>
   </energy>
  </scstep>
  <scstep>
   <time name="dav">   30.27   30.31</time>
   <time name="total">   31.23   31.27</time>
   <dipole>
    <v name="dipole">      0.00000000       0.00000000       3.19097729 </v>
    <i name="Tr[quadrupol]">  -7489.33612828 </i>
    <i name="Echarged">      0.00000000 </i>
    <i name="Edipol_quadrupol">      0.00000000 </i>
    <i name="Eion">      0.00000000 </i>
   </dipole>
   <energy>
    <i name="e_fr_energy">   -528.23851444 </i>
    <i name="e_wo_entrp">   -527.78681714 </i>
    <i name="e_0_energy">   -528.01266579 </i>
   </energy>
  </scstep>
  <scstep>
   <time name="dav">   28.80   28.84</time>
   <time name="total">   29.76   29.80</time>
   <dipole>
    <v name="dipole">      0.00000000       0.00000000       2.98811896 </v>
    <i name="Tr[quadrupol]">  -7492.59464144 </i>
    <i name="Echarged">      0.00000000 </i>
    <i name="Edipol_quadrupol">      0.00000000 </i>
    <i name="Eion">      0.00000000 </i>
   </dipole>
   <energy>
    <i name="e_fr_energy">   -528.05265290 </i>
    <i name="e_wo_entrp">   -527.60535120 </i>
    <i name="e_0_energy">   -527.82900205 </i>
   </energy>
  </scstep>
  <scstep>
   <time name="dav">   27.87   27.91</time>
   <time name="total">   28.82   28.86</time>
   <dipole>
    <v name="dipole">      0.00000000       0.00000000       3.04458080 </v>
    <i name="Tr[quadrupol]">  -7491.05183455 </i>
    <i name="Echarged">      0.00000000 </i>
    <i name="Edipol_quadrupol">      0.00000000 </i>
    <i name="Eion">      0.00000000 </i>
   </dipole>
   <energy>
    <i name="e_fr_energy">   -526.95131444 </i>
    <i name="e_wo_entrp">   -526.51399482 </i>
    <i name="e_0_energy">   -526.73265463 </i>
   </energy>
  </scstep>
  <scstep>
   <time name="dav">   28.25   28.28</time>
   <time name="total">   29.20   29.24</time>
   <dipole>
    <v name="dipole">      0.00000000       0.00000000       3.00511823 </v>
    <i name="Tr[quadrupol]">  -7493.62938501 </i>
    <i name="Echarged">      0.00000000 </i>
    <i name="Edipol_quadrupol">      0.00000000 </i>
    <i name="Eion">      0.00000000 </i>
   </dipole>
   <energy>
    <i name="e_fr_energy">   -528.98971465 </i>
    <i name="e_wo_entrp">   -528.57398974 </i>
    <i name="e_0_energy">   -528.78185219 </i>
   </energy>
  </scstep>
  <scstep>
[...]
       <r>   -10.8510     0.0000    48.0000 </r>
       <r>   -10.7487     0.0000    48.0000 </r>
       <r>   -10.6465     0.0000    48.0000 </r>
       <r>   -10.5442     0.0000    48.0000 </r>
       <r>   -10.4419     0.0141    48.0014 </r>
       <r>   -10.3396     0.7888    48.0821 </r>
       <r>   -10.2374     6.8616    48.7839 </r>
       <r>   -10.1351    12.9176    50.1050 </r>
       <r>   -10.0328    17.6489    51.9100 </r>
       <r>    -9.9305    16.8717    53.6355 </r>
       <r>    -9.8283    11.5706    54.8189 </r>
       <r>    -9.7260    24.9174    57.3673 </r>
       <r>    -9.6237    33.2554    60.7684 </r>
       <r>    -9.5215    32.6258    64.1051 </r>
       <r>    -9.4192    21.5657    66.3107 </r>
       <r>    -9.3169    28.7957    69.2558 </r>
       <r>    -9.2146    54.2572    74.8048 </r>
       <r>    -9.1124    57.6563    80.7015 </r>
       <r>    -9.0101    46.3408    85.4409 </r>
       <r>    -8.9078    27.1571    88.2183 </r>
       <r>    -8.8055    29.4650    91.2318 </r>
       <r>    -8.7033    27.1976    94.0134 </r>
       <r>    -8.6010    16.2506    95.6754 </r>
       <r>    -8.4987     8.2767    96.5219 </r>
       <r>    -8.3964     5.1532    97.0489 </r>
       <r>    -8.2942     3.5634    97.4134 </r>
       <r>    -8.1919     0.8246    97.4977 </r>
       <r>    -8.0896     0.4570    97.5444 </r>
       <r>    -7.9874     3.1732    97.8690 </r>
       <r>    -7.8851     6.3300    98.5164 </r>
       <r>    -7.7828     6.1538    99.1457 </r>
       <r>    -7.6805     4.2584    99.5812 </r>
       <r>    -7.5783     6.1064   100.2058 </r>
       <r>    -7.4760     8.8159   101.1074 </r>
       <r>    -7.3737    10.7068   102.2024 </r>
       <r>    -7.2714    10.5635   103.2828 </r>
       <r>    -7.1692    19.6903   105.2965 </r>
       <r>    -7.0669    27.0503   108.0631 </r>
       <r>    -6.9646    20.7917   110.1895 </r>
       <r>    -6.8624    25.5302   112.8005 </r>
       <r>    -6.7601    36.4783   116.5313 </r>
       <r>    -6.6578    44.9003   121.1234 </r>
       <r>    -6.5555    44.0837   125.6320 </r>
       <r>    -6.4533    47.5112   130.4911 </r>
       <r>    -6.3510    57.1287   136.3338 </r>
       <r>    -6.2487    59.1899   142.3873 </r>
       <r>    -6.1464    61.1481   148.6411 </r>
       <r>    -6.0442    78.5974   156.6795 </r>
       <r>    -5.9419    93.0686   166.1979 </r>
       <r>    -5.8396    89.2794   175.3288 </r>
       <r>    -5.7373    91.3154   184.6679 </r>
       <r>    -5.6351    85.5686   193.4193 </r>
       <r>    -5.5328    59.6931   199.5242 </r>
       <r>    -5.4305    46.4277   204.2726 </r>
       <r>    -5.3283    53.7776   209.7726 </r>
       <r>    -5.2260    56.5754   215.5587 </r>
       <r>    -5.1237    47.3429   220.4006 </r>
       <r>    -5.0214    46.8033   225.1873 </r>
       <r>    -4.9192    42.7181   229.5562 </r>
       <r>    -4.8169    38.9922   233.5441 </r>
       <r>    -4.7146    43.9534   238.0393 </r>
       <r>    -4.6123    65.3444   244.7223 </r>
       <r>    -4.5101    86.1263   253.5307 </r>
       <r>    -4.4078    74.9595   261.1970 </r>
       <r>    -4.3055    54.0488   266.7247 </r>
       <r>    -4.2033    57.3037   272.5854 </r>
       <r>    -4.1010    90.8096   281.8727 </r>
       <r>    -3.9987   124.6253   294.6186 </r>
       <r>    -3.8964   104.2800   305.2836 </r>
       <r>    -3.7942    84.3436   313.9097 </r>
       <r>    -3.6919    83.5131   322.4508 </r>
       <r>    -3.5896   103.6749   333.0539 </r>
       <r>    -3.4873   119.9918   345.3259 </r>
       <r>    -3.3851   117.8503   357.3788 </r>
       <r>    -3.2828   106.2836   368.2487 </r>
       <r>    -3.1805   103.0154   378.7844 </r>
       <r>    -3.0783    98.3646   388.8444 </r>
       <r>    -2.9760    82.3506   397.2667 </r>
       <r>    -2.8737    66.1162   404.0286 </r>
       <r>    -2.7714    64.3330   410.6081 </r>
       <r>    -2.6692    64.7801   417.2334 </r>
       <r>    -2.5669    47.3351   422.0745 </r>
       <r>    -2.4646    42.6556   426.4370 </r>
       <r>    -2.3623    43.5686   430.8929 </r>
       <r>    -2.2601    55.1190   436.5301 </r>
       <r>    -2.1578    67.0158   443.3840 </r>
       <r>    -2.0555    72.2408   450.7723 </r>
       <r>    -1.9532    76.7330   458.6200 </r>
       <r>    -1.8510    75.4879   466.3404 </r>
       <r>    -1.7487    67.0221   473.1949 </r>
       <r>    -1.6464    49.2557   478.2324 </r>
       <r>    -1.5442    52.2887   483.5802 </r>
       <r>    -1.4419    49.5328   488.6460 </r>
       <r>    -1.3396    38.4071   492.5741 </r>
       <r>    -1.2373    48.5614   497.5406 </r>
       <r>    -1.1351    59.5344   503.6293 </r>
       <r>    -1.0328    59.4696   509.7115 </r>
       <r>    -0.9305    67.9886   516.6649 </r>
       <r>    -0.8282    72.6017   524.0901 </r>
       <r>    -0.7260    77.5270   532.0190 </r>
       <r>    -0.6237    90.0518   541.2288 </r>
       <r>    -0.5214    90.8625   550.5216 </r>
       <r>    -0.4192    78.4697   558.5470 </r>
       <r>    -0.3169    56.3449   564.3095 </r>
       <r>    -0.2146    48.5261   569.2724 </r>
       <r>    -0.1123    34.5856   572.8096 </r>
       <r>    -0.0101    18.1753   574.6684 </r>
       <r>     0.0922    13.1037   576.0086 </r>
       <r>     0.1945    11.0526   577.1390 </r>
       <r>     0.2968    11.5508   578.3203 </r>
       <r>     0.3990    14.5011   579.8034 </r>
       <r>     0.5013    14.3838   581.2744 </r>
       <r>     0.6036    13.9803   582.7042 </r>
       <r>     0.7058    17.5710   584.5013 </r>
       <r>     0.8081    11.6530   585.6931 </r>
       <r>     0.9104     5.8253   586.2888 </r>
       <r>     1.0127     8.4720   587.1553 </r>
       <r>     1.1149    17.7703   588.9727 </r>
       <r>     1.2172    21.0287   591.1234 </r>
       <r>     1.3195    14.5599   592.6125 </r>
       <r>     1.4218    11.3561   593.7739 </r>
       <r>     1.5240     9.9633   594.7929 </r>
       <r>     1.6263    16.9130   596.5226 </r>
       <r>     1.7286    24.4792   599.0262 </r>
       <r>     1.8309    15.3312   600.5941 </r>
       <r>     1.9331    11.6323   601.7838 </r>
       <r>     2.0354     8.2785   602.6305 </r>
       <r>     2.1377    10.3437   603.6883 </r>
       <r>     2.2399    14.3209   605.1530 </r>
       <r>     2.3422    17.2930   606.9216 </r>
       <r>     2.4445    22.2967   609.2019 </r>
       <r>     2.5468    21.5914   611.4102 </r>
       <r>     2.6490    15.7008   613.0159 </r>
       <r>     2.7513    20.8705   615.1504 </r>
       <r>     2.8536    19.7492   617.1702 </r>
       <r>     2.9559    15.4914   618.7546 </r>
       <r>     3.0581    16.0685   620.3979 </r>
       <r>     3.1604    11.9097   621.6160 </r>
       <r>     3.2627    19.5809   623.6186 </r>
       <r>     3.3649    26.9365   626.3735 </r>
       <r>     3.4672    20.3344   628.4531 </r>
       <r>     3.5695    21.7601   630.6786 </r>
       <r>     3.6718    22.3677   632.9662 </r>
       <r>     3.7740    20.4616   635.0589 </r>
       <r>     3.8763    17.7577   636.8750 </r>
       <r>     3.9786    17.8022   638.6957 </r>
       <r>     4.0809    22.2215   640.9683 </r>
       <r>     4.1831    26.2430   643.6523 </r>
       <r>     4.2854    28.1889   646.5353 </r>
       <r>     4.3877    29.2043   649.5221 </r>
       <r>     4.4900    29.5436   652.5436 </r>
       <r>     4.5922    29.4777   655.5584 </r>
       <r>     4.6945    21.3903   657.7460 </r>
       <r>     4.7968    17.9786   659.5847 </r>
       <r>     4.8990    12.4629   660.8594 </r>
       <r>     5.0013     7.0356   661.5789 </r>
       <r>     5.1036     3.4158   661.9283 </r>
       <r>     5.2059     0.6709   661.9969 </r>
       <r>     5.3081     0.0303   662.0000 </r>
       <r>     5.4104     0.0002   662.0000 </r>
       <r>     5.5127     0.0000   662.0000 </r>
       <r>     5.6150     0.0000   662.0000 </r>
       <r>     5.7172     0.0000   662.0000 </r>
       <r>     5.8195     0.0000   662.0000 </r>
       <r>     5.9218     0.0000   662.0000 </r>
       <r>     6.0240     0.0000   662.0000 </r>
       <r>     6.1263     0.0000   662.0000 </r>
       <r>     6.2286     0.0000   662.0000 </r>
       <r>     6.3309     0.0000   662.0000 </r>
       <r>     6.4331     0.0000   662.0000 </r>
      </set>
     </set>
    </array>
   </total>
  </dos>
 </calculation>
 <structure name="finalpos" >
  <crystal>
   <varray name="basis" >
    <v>       8.34588864       0.00000000       0.00000000 </v>
    <v>       0.00000000       9.63700211       0.00000000 </v>
    <v>       0.00000000       0.00000000      32.54292636 </v>
   </varray>
   <i name="volume">   2617.40629817 </i>
   <varray name="rec_basis" >
    <v>       0.11981948       0.00000000       0.00000000 </v>
    <v>       0.00000000       0.10376671       0.00000000 </v>
    <v>       0.00000000       0.00000000       0.03072864 </v>
   </varray>
  </crystal>
  <varray name="positions" >
   <v>       0.82987782       0.32893657       0.45626907 </v>
   <v>       0.18358552       0.13915953       0.53404626 </v>
   <v>       0.63749858       0.48722646       0.44630824 </v>
   <v>       0.76505479       0.10164196       0.44046232 </v>
   <v>       0.35559030       0.14464578       0.47968083 </v>
   <v>       0.39706373       0.19781595       0.43484001 </v>
   <v>       0.35486673       0.25048871       0.58975335 </v>
   <v>       0.98674522       0.24439557       0.45919843 </v>
   <v>       0.81728942       0.17846930       0.57774992 </v>
   <v>       0.12188353       0.02176257       0.50268372 </v>
   <v>       0.01328270       0.50779490       0.49130433 </v>
   <v>       0.76688814       0.49849788       0.55735146 </v>
   <v>       0.92950099       0.06074068       0.58183453 </v>
   <v>       0.87644820       0.82475833       0.54161484 </v>
   <v>       0.56791200       0.94382253       0.60964693 </v>
   <v>       0.17655779       0.29050858       0.58307598 </v>
   <v>       0.10723629       0.30753928       0.73063035 </v>
   <v>       0.26297113       0.20929135       0.72228877 </v>
   <v>       0.57678770       0.50471469       0.66041960 </v>
   <v>       0.43145067       0.85245248       0.81447282 </v>
   <v>       0.31852688       0.39539938       0.66916120 </v>
   <v>       0.48716086       0.00664387       0.67107255 </v>
   <v>       0.86079205       0.19792432       0.69457285 </v>
   <v>       0.78780883       0.34368172       0.70321726 </v>
   <v>       0.88687101       0.79772432       0.46395006 </v>
   <v>       0.26646632       0.85203031       0.46190029 </v>
   <v>       0.58499584       0.09016055       0.43742120 </v>
   <v>       0.80331425       0.56172203       0.43738646 </v>
   <v>       0.24678164       0.34736810       0.45777538 </v>
   <v>       0.21394966       0.48819187       0.43496350 </v>
   <v>       0.69822851       0.69755695       0.58379566 </v>
   <v>       0.73232810       0.83373308       0.43860562 </v>
   <v>       0.15645553       0.85869866       0.55985194 </v>
   <v>       0.29963182       0.72876961       0.43150231 </v>
   <v>       0.98386089       0.73642508       0.51181423 </v>
   <v>       0.38693224       0.97193514       0.59956836 </v>
   <v>       0.20575974       0.81904344       0.60297228 </v>
   <v>       0.12918582       0.55201164       0.52561380 </v>
   <v>       0.67930167       0.47320442       0.59601162 </v>
   <v>       0.82331105       0.79335963       0.60484938 </v>
   <v>       0.21956527       0.68014924       0.66874849 </v>
   <v>       0.05159259       0.73023500       0.68439287 </v>
   <v>       0.62209759       0.17882606       0.70762764 </v>
   <v>       0.73774371       0.59037316       0.66254328 </v>
   <v>       0.46847423       0.92833108       0.81031648 </v>
   <v>       0.28048723       0.46636380       0.62754882 </v>
   <v>       0.81640782       0.76578297       0.75333718 </v>
   <v>       0.69395958       0.83865880       0.72603719 </v>
   <v>       0.19910286       0.09743328       0.50696631 </v>
   <v>       0.73799912       0.47984270       0.43017420 </v>
   <v>       0.20918162       0.44253088       0.46189223 </v>
   <v>       0.87154636       0.23292252       0.46021623 </v>
   <v>       0.19181435       0.28236783       0.71160736 </v>
   <v>       0.67042290       0.52610544       0.57032257 </v>
   <v>       0.01710425       0.56399629       0.51879506 </v>
   <v>       0.28633383       0.30895456       0.57370380 </v>
   <v>       0.91975642       0.15733360       0.58874191 </v>
   <v>       0.69698959       0.49796240       0.65778934 </v>
   <v>       0.51914206       0.98176638       0.69955077 </v>
   <v>       0.83163009       0.26170834       0.71705586 </v>
   <v>       0.23025939       0.75990328       0.45407968 </v>
   <v>       0.68019277       0.02916295       0.43704695 </v>
   <v>       0.42637330       0.20880278       0.46394447 </v>
   <v>       0.81139458       0.75990551       0.44383707 </v>
   <v>       0.13951090       0.74845619       0.66502255 </v>
   <v>       0.48213239       0.01469457       0.61321159 </v>
   <v>       0.96320626       0.83179762       0.52216805 </v>
   <v>       0.71212222       0.79674098       0.59475071 </v>
   <v>       0.23795216       0.80889436       0.57433895 </v>
   <v>       0.52012228       0.13360900       0.71755281 </v>
   <v>       0.34281322       0.47883284       0.65282404 </v>
   <v>       0.75260371       0.74966499       0.72857479 </v>
   <v>       0.16666667       0.08333333       0.21910656 </v>
   <v>       0.50000000       0.08333333       0.21910656 </v>
   <v>       0.83333333       0.08333333       0.21910656 </v>
   <v>       0.00000000       0.33333333       0.21910656 </v>
   <v>       0.33333333       0.33333333       0.21910656 </v>
   <v>       0.66666667       0.33333333       0.21910656 </v>
   <v>       0.16666667       0.58333333       0.21910656 </v>
   <v>       0.50000000       0.58333333       0.21910656 </v>
   <v>       0.83333333       0.58333333       0.21910656 </v>
   <v>       0.00000000       0.83333333       0.21910656 </v>
   <v>       0.33333333       0.83333333       0.21910656 </v>
   <v>       0.66666667       0.83333333       0.21910656 </v>
   <v>       0.00000000       0.16666667       0.28890555 </v>
   <v>       0.33333333       0.16666667       0.28890555 </v>
   <v>       0.66666667       0.16666667       0.28890555 </v>
   <v>       0.16666667       0.41666667       0.28890555 </v>
   <v>       0.50000000       0.41666667       0.28890555 </v>
   <v>       0.83333333       0.41666667       0.28890555 </v>
   <v>       0.00000000       0.66666667       0.28890555 </v>
   <v>       0.33333333       0.66666667       0.28890555 </v>
   <v>       0.66666667       0.66666667       0.28890555 </v>
   <v>       0.16666667       0.91666667       0.28890555 </v>
   <v>       0.50000000       0.91666667       0.28890555 </v>
   <v>       0.83333333       0.91666667       0.28890555 </v>
   <v>       0.00988236       0.00559020       0.36056499 </v>
   <v>       0.33607073       0.00655748       0.36614563 </v>
   <v>       0.66893135       0.00583492       0.35933391 </v>
   <v>       0.16937191       0.25663271       0.36282662 </v>
   <v>       0.50007331       0.25483660       0.36073641 </v>
   <v>       0.83638093       0.25299764       0.36136653 </v>
   <v>       0.00016611       0.50285022       0.36107934 </v>
   <v>       0.33285016       0.50720068       0.36290396 </v>
   <v>       0.65766853       0.50221324       0.36009824 </v>
   <v>       0.16468228       0.75584069       0.36151038 </v>
   <v>       0.49423870       0.75842909       0.36034385 </v>
   <v>       0.83162384       0.75067490       0.36233011 </v>
  </varray>
  <varray name="selective"  type="logical" >
   <v type="logical" >  T  T  T </v>
   <v type="logical" >  T  T  T </v>
   <v type="logical" >  T  T  T </v>
   <v type="logical" >  T  T  T </v>
   <v type="logical" >  T  T  T </v>
   <v type="logical" >  T  T  T </v>
   <v type="logical" >  T  T  T </v>
   <v type="logical" >  T  T  T </v>
   <v type="logical" >  T  T  T </v>
   <v type="logical" >  T  T  T </v>
   <v type="logical" >  T  T  T </v>
   <v type="logical" >  T  T  T </v>
   <v type="logical" >  T  T  T </v>
   <v type="logical" >  T  T  T </v>
   <v type="logical" >  T  T  T </v>
   <v type="logical" >  T  T  T </v>
   <v type="logical" >  T  T  T </v>
   <v type="logical" >  T  T  T </v>
   <v type="logical" >  T  T  T </v>
   <v type="logical" >  T  T  T </v>
   <v type="logical" >  T  T  T </v>
   <v type="logical" >  T  T  T </v>
   <v type="logical" >  T  T  T </v>
   <v type="logical" >  T  T  T </v>
   <v type="logical" >  T  T  T </v>
   <v type="logical" >  T  T  T </v>
   <v type="logical" >  T  T  T </v>
   <v type="logical" >  T  T  T </v>
   <v type="logical" >  T  T  T </v>
   <v type="logical" >  T  T  T </v>
   <v type="logical" >  T  T  T </v>
   <v type="logical" >  T  T  T </v>
   <v type="logical" >  T  T  T </v>
   <v type="logical" >  T  T  T </v>
   <v type="logical" >  T  T  T </v>
   <v type="logical" >  T  T  T </v>
   <v type="logical" >  T  T  T </v>
   <v type="logical" >  T  T  T </v>
   <v type="logical" >  T  T  T </v>
   <v type="logical" >  T  T  T </v>
   <v type="logical" >  T  T  T </v>
   <v type="logical" >  T  T  T </v>
   <v type="logical" >  T  T  T </v>
   <v type="logical" >  T  T  T </v>
   <v type="logical" >  T  T  T </v>
   <v type="logical" >  T  T  T </v>
   <v type="logical" >  T  T  T </v>
   <v type="logical" >  T  T  T </v>
   <v type="logical" >  T  T  T </v>
   <v type="logical" >  T  T  T </v>
   <v type="logical" >  T  T  T </v>
   <v type="logical" >  T  T  T </v>
   <v type="logical" >  T  T  T </v>
   <v type="logical" >  T  T  T </v>
   <v type="logical" >  T  T  T </v>
   <v type="logical" >  T  T  T </v>
   <v type="logical" >  T  T  T </v>
   <v type="logical" >  T  T  T </v>
   <v type="logical" >  T  T  T </v>
   <v type="logical" >  T  T  T </v>
   <v type="logical" >  T  T  T </v>
   <v type="logical" >  T  T  T </v>
   <v type="logical" >  T  T  T </v>
   <v type="logical" >  T  T  T </v>
   <v type="logical" >  T  T  T </v>
   <v type="logical" >  T  T  T </v>
   <v type="logical" >  T  T  T </v>
   <v type="logical" >  T  T  T </v>
   <v type="logical" >  T  T  T </v>
   <v type="logical" >  T  T  T </v>
   <v type="logical" >  T  T  T </v>
   <v type="logical" >  T  T  T </v>
   <v type="logical" >  F  F  F </v>
   <v type="logical" >  F  F  F </v>
   <v type="logical" >  F  F  F </v>
   <v type="logical" >  F  F  F </v>
   <v type="logical" >  F  F  F </v>
   <v type="logical" >  F  F  F </v>
   <v type="logical" >  F  F  F </v>
   <v type="logical" >  F  F  F </v>
   <v type="logical" >  F  F  F </v>
   <v type="logical" >  F  F  F </v>
   <v type="logical" >  F  F  F </v>
   <v type="logical" >  F  F  F </v>
   <v type="logical" >  F  F  F </v>
   <v type="logical" >  F  F  F </v>
   <v type="logical" >  F  F  F </v>
   <v type="logical" >  F  F  F </v>
   <v type="logical" >  F  F  F </v>
   <v type="logical" >  F  F  F </v>
   <v type="logical" >  F  F  F </v>
   <v type="logical" >  F  F  F </v>
   <v type="logical" >  F  F  F </v>
   <v type="logical" >  F  F  F </v>
   <v type="logical" >  F  F  F </v>
   <v type="logical" >  F  F  F </v>
   <v type="logical" >  T  T  T </v>
   <v type="logical" >  T  T  T </v>
   <v type="logical" >  T  T  T </v>
   <v type="logical" >  T  T  T </v>
   <v type="logical" >  T  T  T </v>
   <v type="logical" >  T  T  T </v>
   <v type="logical" >  T  T  T </v>
   <v type="logical" >  T  T  T </v>
   <v type="logical" >  T  T  T </v>
   <v type="logical" >  T  T  T </v>
   <v type="logical" >  T  T  T </v>
   <v type="logical" >  T  T  T </v>
  </varray>
  <nose>
   <v>      -3.00000000       0.00000000       0.00010000       0.00010000 </v>
  </nose>
 </structure>
</modeling>
