CuH2O                                   
           1
     8.345889    0.000000    0.000000
     0.000000    9.637002    0.000000
     0.000000    0.000000   32.542926
   H    O    Pt
  48  24  36
Direct configuration=     1
   0.82987782  0.32893657  0.45626907
   0.18358552  0.13915953  0.53404626
   0.63749858  0.48722646  0.44630824
   0.76505479  0.10164196  0.44046232
   0.35559030  0.14464578  0.47968083
   0.39706373  0.19781595  0.43484001
   0.35486673  0.25048871  0.58975335
   0.98674522  0.24439557  0.45919843
   0.81728942  0.17846930  0.57774992
   0.12188353  0.02176257  0.50268372
   0.01328270  0.50779490  0.49130433
   0.76688814  0.49849788  0.55735146
   0.92950099  0.06074068  0.58183453
   0.87644820  0.82475833  0.54161484
   0.56791200  0.94382253  0.60964693
   0.17655779  0.29050858  0.58307598
   0.10723629  0.30753928  0.73063035
   0.26297113  0.20929135  0.72228877
   0.57678770  0.50471469  0.66041960
   0.43145067  0.85245248  0.81447282
   0.31852688  0.39539938  0.66916120
   0.48716086  0.00664387  0.67107255
   0.86079205  0.19792432  0.69457285
   0.78780883  0.34368172  0.70321726
   0.88687101  0.79772432  0.46395006
   0.26646632  0.85203031  0.46190029
   0.58499584  0.09016055  0.43742120
   0.80331425  0.56172203  0.43738646
   0.24678164  0.34736810  0.45777538
   0.21394966  0.48819187  0.43496350
   0.69822851  0.69755695  0.58379566
   0.73232810  0.83373308  0.43860562
   0.15645553  0.85869866  0.55985194
   0.29963182  0.72876961  0.43150231
   0.98386089  0.73642508  0.51181423
   0.38693224  0.97193514  0.59956836
   0.20575974  0.81904344  0.60297228
   0.12918582  0.55201164  0.52561380
   0.67930167  0.47320442  0.59601162
   0.82331105  0.79335963  0.60484938
   0.21956527  0.68014924  0.66874849
   0.05159259  0.73023500  0.68439287
   0.62209759  0.17882606  0.70762764
   0.73774371  0.59037316  0.66254328
   0.46847423  0.92833108  0.81031648
   0.28048723  0.46636380  0.62754882
   0.81640782  0.76578297  0.75333718
   0.69395958  0.83865880  0.72603719
   0.19910286  0.09743328  0.50696631
   0.73799912  0.47984270  0.43017420
   0.20918162  0.44253088  0.46189223
   0.87154636  0.23292252  0.46021623
   0.19181435  0.28236783  0.71160736
   0.67042290  0.52610544  0.57032257
   0.01710425  0.56399629  0.51879506
   0.28633383  0.30895456  0.57370380
   0.91975642  0.15733360  0.58874191
   0.69698959  0.49796240  0.65778934
   0.51914206  0.98176638  0.69955077
   0.83163009  0.26170834  0.71705586
   0.23025939  0.75990328  0.45407968
   0.68019277  0.02916295  0.43704695
   0.42637330  0.20880278  0.46394447
   0.81139458  0.75990551  0.44383707
   0.13951090  0.74845619  0.66502255
   0.48213239  0.01469457  0.61321159
   0.96320626  0.83179762  0.52216805
   0.71212222  0.79674098  0.59475071
   0.23795216  0.80889436  0.57433895
   0.52012228  0.13360900  0.71755281
   0.34281322  0.47883284  0.65282404
   0.75260371  0.74966499  0.72857479
   0.16666667  0.08333333  0.21910656
   0.50000000  0.08333333  0.21910656
   0.83333333  0.08333333  0.21910656
   0.00000000  0.33333333  0.21910656
   0.33333333  0.33333333  0.21910656
   0.66666667  0.33333333  0.21910656
   0.16666667  0.58333333  0.21910656
   0.50000000  0.58333333  0.21910656
   0.83333333  0.58333333  0.21910656
   0.00000000  0.83333333  0.21910656
   0.33333333  0.83333333  0.21910656
   0.66666667  0.83333333  0.21910656
   0.00000000  0.16666667  0.28890555
   0.33333333  0.16666667  0.28890555
   0.66666667  0.16666667  0.28890555
   0.16666667  0.41666667  0.28890555
   0.50000000  0.41666667  0.28890555
   0.83333333  0.41666667  0.28890555
   0.00000000  0.66666667  0.28890555
   0.33333333  0.66666667  0.28890555
   0.66666667  0.66666667  0.28890555
   0.16666667  0.91666667  0.28890555
   0.50000000  0.91666667  0.28890555
   0.83333333  0.91666667  0.28890555
   0.00988236  0.00559020  0.36056499
   0.33607073  0.00655748  0.36614563
   0.66893135  0.00583492  0.35933391
   0.16937191  0.25663271  0.36282662
   0.50007331  0.25483660  0.36073641
   0.83638093  0.25299764  0.36136653
   0.00016611  0.50285022  0.36107934
   0.33285016  0.50720068  0.36290396
   0.65766853  0.50221324  0.36009824
   0.16468228  0.75584069  0.36151038
   0.49423870  0.75842909  0.36034385
   0.83162384  0.75067490  0.36233011
