 108 108   0   0
  0.2423524E+02  0.8345889E-09  0.9637002E-09  0.3254293E-08  0.1000000E-14
   300.000000000000     
  CAR 
 PtH2O                                   
      6.63557424    -23.55540556  301     -0.58686125      1.00000000
    -23.555  0.0000E+00  0.0000E+00
    -23.455  0.0000E+00  0.0000E+00
    -23.354  0.0000E+00  0.0000E+00
    -23.253  0.0000E+00  0.0000E+00
    -23.153  0.0000E+00  0.0000E+00
    -23.052  0.0000E+00  0.0000E+00
    -22.952  0.0000E+00  0.0000E+00
    -22.851  0.0000E+00  0.0000E+00
    -22.750  0.2819E-14  0.2837E-15
    -22.650  0.1406E-09  0.1415E-10
    -22.549  0.9555E-06  0.9617E-07
    -22.448  0.9492E-03  0.9562E-04
    -22.348  0.1454E+00  0.1473E-01
    -22.247  0.3809E+01  0.3981E+00
    -22.146  0.2094E+02  0.2505E+01
    -22.046  0.3575E+02  0.6103E+01
    -21.945  0.3461E+02  0.9586E+01
    -21.845  0.3615E+02  0.1322E+02
    -21.744  0.4525E+02  0.1778E+02
    -21.643  0.4042E+02  0.2185E+02
    -21.543  0.3423E+02  0.2529E+02
    -21.442  0.3418E+02  0.2873E+02
    -21.341  0.3434E+02  0.3219E+02
    -21.241  0.2677E+02  0.3488E+02
    -21.140  0.3256E+02  0.3816E+02
    -21.039  0.2712E+02  0.4089E+02
    -20.939  0.2484E+02  0.4339E+02
    -20.838  0.1971E+02  0.4537E+02
    -20.738  0.1053E+02  0.4643E+02
    -20.637  0.8182E+01  0.4725E+02
    -20.536  0.5751E+01  0.4783E+02
    -20.436  0.1568E+01  0.4799E+02
    -20.335  0.9519E-01  0.4800E+02
    -20.234  0.9823E-03  0.4800E+02
    -20.134  0.1519E-05  0.4800E+02
    -20.033  0.3325E-09  0.4800E+02
    -19.932  0.1030E-13  0.4800E+02
    -19.832  0.0000E+00  0.4800E+02
    -19.731  0.0000E+00  0.4800E+02
    -19.631  0.0000E+00  0.4800E+02
    -19.530  0.0000E+00  0.4800E+02
    -19.429  0.0000E+00  0.4800E+02
    -19.329  0.0000E+00  0.4800E+02
    -19.228  0.0000E+00  0.4800E+02
    -19.127  0.0000E+00  0.4800E+02
    -19.027  0.0000E+00  0.4800E+02
    -18.926  0.0000E+00  0.4800E+02
    -18.825  0.0000E+00  0.4800E+02
    -18.725  0.0000E+00  0.4800E+02
    -18.624  0.0000E+00  0.4800E+02
    -18.524  0.0000E+00  0.4800E+02
    -18.423  0.0000E+00  0.4800E+02
    -18.322  0.0000E+00  0.4800E+02
    -18.222  0.0000E+00  0.4800E+02
    -18.121  0.0000E+00  0.4800E+02
    -18.020  0.0000E+00  0.4800E+02
    -17.920  0.0000E+00  0.4800E+02
    -17.819  0.0000E+00  0.4800E+02
    -17.718  0.0000E+00  0.4800E+02
    -17.618  0.0000E+00  0.4800E+02
    -17.517  0.0000E+00  0.4800E+02
    -17.417  0.0000E+00  0.4800E+02
    -17.316  0.0000E+00  0.4800E+02
    -17.215  0.0000E+00  0.4800E+02
    -17.115  0.0000E+00  0.4800E+02
    -17.014  0.0000E+00  0.4800E+02
    -16.913  0.0000E+00  0.4800E+02
    -16.813  0.0000E+00  0.4800E+02
    -16.712  0.0000E+00  0.4800E+02
    -16.611  0.0000E+00  0.4800E+02
    -16.511  0.0000E+00  0.4800E+02
    -16.410  0.0000E+00  0.4800E+02
    -16.310  0.0000E+00  0.4800E+02
    -16.209  0.0000E+00  0.4800E+02
    -16.108  0.0000E+00  0.4800E+02
    -16.008  0.0000E+00  0.4800E+02
    -15.907  0.0000E+00  0.4800E+02
    -15.806  0.0000E+00  0.4800E+02
    -15.706  0.0000E+00  0.4800E+02
    -15.605  0.0000E+00  0.4800E+02
    -15.504  0.0000E+00  0.4800E+02
    -15.404  0.0000E+00  0.4800E+02
    -15.303  0.0000E+00  0.4800E+02
    -15.203  0.0000E+00  0.4800E+02
    -15.102  0.0000E+00  0.4800E+02
    -15.001  0.0000E+00  0.4800E+02
    -14.901  0.0000E+00  0.4800E+02
    -14.800  0.0000E+00  0.4800E+02
    -14.699  0.0000E+00  0.4800E+02
    -14.599  0.0000E+00  0.4800E+02
    -14.498  0.0000E+00  0.4800E+02
    -14.397  0.0000E+00  0.4800E+02
    -14.297  0.0000E+00  0.4800E+02
    -14.196  0.0000E+00  0.4800E+02
    -14.096  0.0000E+00  0.4800E+02
    -13.995  0.0000E+00  0.4800E+02
    -13.894  0.0000E+00  0.4800E+02
    -13.794  0.0000E+00  0.4800E+02
    -13.693  0.0000E+00  0.4800E+02
    -13.592  0.0000E+00  0.4800E+02
    -13.492  0.0000E+00  0.4800E+02
    -13.391  0.0000E+00  0.4800E+02
    -13.290  0.0000E+00  0.4800E+02
    -13.190  0.0000E+00  0.4800E+02
    -13.089  0.0000E+00  0.4800E+02
    -12.989  0.0000E+00  0.4800E+02
    -12.888  0.0000E+00  0.4800E+02
    -12.787  0.0000E+00  0.4800E+02
    -12.687  0.0000E+00  0.4800E+02
    -12.586  0.0000E+00  0.4800E+02
    -12.485  0.0000E+00  0.4800E+02
    -12.385  0.0000E+00  0.4800E+02
    -12.284  0.0000E+00  0.4800E+02
    -12.183  0.0000E+00  0.4800E+02
    -12.083  0.0000E+00  0.4800E+02
    -11.982  0.0000E+00  0.4800E+02
    -11.882  0.0000E+00  0.4800E+02
    -11.781  0.0000E+00  0.4800E+02
    -11.680  0.0000E+00  0.4800E+02
    -11.580  0.0000E+00  0.4800E+02
    -11.479  0.0000E+00  0.4800E+02
    -11.378  0.0000E+00  0.4800E+02
    -11.278  0.0000E+00  0.4800E+02
    -11.177  0.0000E+00  0.4800E+02
    -11.076  0.0000E+00  0.4800E+02
    -10.976  0.0000E+00  0.4800E+02
    -10.875  0.0000E+00  0.4800E+02
    -10.775  0.0000E+00  0.4800E+02
    -10.674  0.0000E+00  0.4800E+02
    -10.573  0.4586E-12  0.4800E+02
    -10.473  0.7832E-08  0.4800E+02
    -10.372  0.1891E-04  0.4800E+02
    -10.271  0.6831E-02  0.4800E+02
    -10.171  0.4115E+00  0.4804E+02
    -10.070  0.4987E+01  0.4854E+02
     -9.969  0.1638E+02  0.5019E+02
     -9.869  0.2446E+02  0.5265E+02
     -9.768  0.3042E+02  0.5572E+02
     -9.668  0.2863E+02  0.5860E+02
     -9.567  0.2284E+02  0.6090E+02
     -9.466  0.2512E+02  0.6342E+02
     -9.366  0.3403E+02  0.6685E+02
     -9.265  0.4080E+02  0.7096E+02
     -9.164  0.4779E+02  0.7577E+02
     -9.064  0.4615E+02  0.8041E+02
     -8.963  0.3817E+02  0.8425E+02
     -8.862  0.3843E+02  0.8812E+02
     -8.762  0.4261E+02  0.9241E+02
     -8.661  0.4157E+02  0.9659E+02
     -8.561  0.1973E+02  0.9858E+02
     -8.460  0.5981E+01  0.9918E+02
     -8.359  0.2754E+01  0.9945E+02
     -8.259  0.4695E+00  0.9950E+02
     -8.158  0.7943E+00  0.9958E+02
     -8.057  0.4144E+01  0.1000E+03
     -7.957  0.6895E+01  0.1007E+03
     -7.856  0.5539E+01  0.1013E+03
     -7.755  0.4086E+01  0.1017E+03
     -7.655  0.6091E+01  0.1023E+03
     -7.554  0.8669E+01  0.1031E+03
     -7.454  0.1064E+02  0.1042E+03
     -7.353  0.1195E+02  0.1054E+03
     -7.252  0.1416E+02  0.1068E+03
     -7.152  0.1750E+02  0.1086E+03
     -7.051  0.2431E+02  0.1111E+03
     -6.950  0.3187E+02  0.1143E+03
     -6.850  0.3094E+02  0.1174E+03
     -6.749  0.3177E+02  0.1206E+03
     -6.648  0.3905E+02  0.1245E+03
     -6.548  0.5218E+02  0.1298E+03
     -6.447  0.6405E+02  0.1362E+03
     -6.347  0.6507E+02  0.1427E+03
     -6.246  0.6543E+02  0.1493E+03
     -6.145  0.7868E+02  0.1573E+03
     -6.045  0.8691E+02  0.1660E+03
     -5.944  0.8508E+02  0.1746E+03
     -5.843  0.8456E+02  0.1831E+03
     -5.743  0.7645E+02  0.1908E+03
     -5.642  0.6154E+02  0.1970E+03
     -5.541  0.5059E+02  0.2020E+03
     -5.441  0.5269E+02  0.2074E+03
     -5.340  0.5826E+02  0.2132E+03
     -5.240  0.5364E+02  0.2186E+03
     -5.139  0.4812E+02  0.2235E+03
     -5.038  0.4433E+02  0.2279E+03
     -4.938  0.3823E+02  0.2318E+03
     -4.837  0.4395E+02  0.2362E+03
     -4.736  0.6650E+02  0.2429E+03
     -4.636  0.8651E+02  0.2516E+03
     -4.535  0.7753E+02  0.2594E+03
     -4.434  0.5649E+02  0.2651E+03
     -4.334  0.5356E+02  0.2705E+03
     -4.233  0.6831E+02  0.2773E+03
     -4.133  0.9457E+02  0.2869E+03
     -4.032  0.1042E+03  0.2973E+03
     -3.931  0.1003E+03  0.3074E+03
     -3.831  0.9873E+02  0.3174E+03
     -3.730  0.1100E+03  0.3284E+03
     -3.629  0.1164E+03  0.3402E+03
     -3.529  0.1104E+03  0.3513E+03
     -3.428  0.9721E+02  0.3610E+03
     -3.327  0.9258E+02  0.3704E+03
     -3.227  0.9954E+02  0.3804E+03
     -3.126  0.1051E+03  0.3910E+03
     -3.026  0.9111E+02  0.4001E+03
     -2.925  0.7699E+02  0.4079E+03
     -2.824  0.6597E+02  0.4145E+03
     -2.724  0.5100E+02  0.4196E+03
     -2.623  0.4166E+02  0.4238E+03
     -2.522  0.4479E+02  0.4283E+03
     -2.422  0.5298E+02  0.4337E+03
     -2.321  0.6062E+02  0.4398E+03
     -2.220  0.6497E+02  0.4463E+03
     -2.120  0.7115E+02  0.4535E+03
     -2.019  0.7417E+02  0.4609E+03
     -1.919  0.6988E+02  0.4680E+03
     -1.818  0.6128E+02  0.4741E+03
     -1.717  0.5148E+02  0.4793E+03
     -1.617  0.5272E+02  0.4846E+03
     -1.516  0.4714E+02  0.4894E+03
     -1.415  0.4414E+02  0.4938E+03
     -1.315  0.5379E+02  0.4992E+03
     -1.214  0.5967E+02  0.5052E+03
     -1.113  0.5943E+02  0.5112E+03
     -1.013  0.6601E+02  0.5179E+03
     -0.912  0.7302E+02  0.5252E+03
     -0.812  0.8090E+02  0.5333E+03
     -0.711  0.9158E+02  0.5426E+03
     -0.610  0.8674E+02  0.5513E+03
     -0.510  0.7235E+02  0.5586E+03
     -0.409  0.5532E+02  0.5641E+03
     -0.308  0.4929E+02  0.5691E+03
     -0.208  0.3463E+02  0.5726E+03
     -0.107  0.1820E+02  0.5744E+03
     -0.006  0.1470E+02  0.5759E+03
      0.094  0.1167E+02  0.5771E+03
      0.195  0.1204E+02  0.5783E+03
      0.295  0.1502E+02  0.5798E+03
      0.396  0.1488E+02  0.5813E+03
      0.497  0.1384E+02  0.5827E+03
      0.597  0.1538E+02  0.5842E+03
      0.698  0.1234E+02  0.5855E+03
      0.799  0.6096E+01  0.5861E+03
      0.899  0.9871E+01  0.5871E+03
      1.000  0.1132E+02  0.5882E+03
      1.101  0.9627E+01  0.5892E+03
      1.201  0.1198E+02  0.5904E+03
      1.302  0.1037E+02  0.5914E+03
      1.402  0.7930E+01  0.5922E+03
      1.503  0.1373E+02  0.5936E+03
      1.604  0.2353E+02  0.5960E+03
      1.704  0.1693E+02  0.5977E+03
      1.805  0.6723E+01  0.5984E+03
      1.906  0.5892E+01  0.5990E+03
      2.006  0.1067E+02  0.6000E+03
      2.107  0.1441E+02  0.6015E+03
      2.208  0.1727E+02  0.6032E+03
      2.308  0.1811E+02  0.6051E+03
      2.409  0.1851E+02  0.6069E+03
      2.509  0.1652E+02  0.6086E+03
      2.610  0.1566E+02  0.6102E+03
      2.711  0.1944E+02  0.6121E+03
      2.811  0.1810E+02  0.6139E+03
      2.912  0.1612E+02  0.6156E+03
      3.013  0.1417E+02  0.6170E+03
      3.113  0.1241E+02  0.6182E+03
      3.214  0.1761E+02  0.6200E+03
      3.315  0.2112E+02  0.6221E+03
      3.415  0.2180E+02  0.6243E+03
      3.516  0.2025E+02  0.6264E+03
      3.616  0.1739E+02  0.6281E+03
      3.717  0.1622E+02  0.6297E+03
      3.818  0.1215E+02  0.6310E+03
      3.918  0.1207E+02  0.6322E+03
      4.019  0.1695E+02  0.6339E+03
      4.120  0.2532E+02  0.6364E+03
      4.220  0.2496E+02  0.6389E+03
      4.321  0.2454E+02  0.6414E+03
      4.422  0.2891E+02  0.6443E+03
      4.522  0.2960E+02  0.6473E+03
      4.623  0.2135E+02  0.6494E+03
      4.723  0.1699E+02  0.6512E+03
      4.824  0.1944E+02  0.6531E+03
      4.925  0.2352E+02  0.6555E+03
      5.025  0.2090E+02  0.6576E+03
      5.126  0.1679E+02  0.6593E+03
      5.227  0.1510E+02  0.6608E+03
      5.327  0.9878E+01  0.6618E+03
      5.428  0.2023E+01  0.6620E+03
      5.529  0.8421E-01  0.6620E+03
      5.629  0.5971E-03  0.6620E+03
      5.730  0.6582E-06  0.6620E+03
      5.830  0.1068E-09  0.6620E+03
      5.931  0.2206E-14  0.6620E+03
      6.032  0.0000E+00  0.6620E+03
      6.132  0.0000E+00  0.6620E+03
      6.233  0.0000E+00  0.6620E+03
      6.334  0.0000E+00  0.6620E+03
      6.434  0.0000E+00  0.6620E+03
      6.535  0.0000E+00  0.6620E+03
      6.636  0.0000E+00  0.6620E+03
      6.65905189    -23.67223033  301     -0.60324667      1.00000000
    -23.672  0.0000E+00  0.0000E+00
    -23.571  0.0000E+00  0.0000E+00
    -23.470  0.0000E+00  0.0000E+00
    -23.369  0.0000E+00  0.0000E+00
    -23.268  0.0000E+00  0.0000E+00
    -23.167  0.0000E+00  0.0000E+00
    -23.066  0.0000E+00  0.0000E+00
    -22.965  0.0000E+00  0.0000E+00
    -22.863  0.1678E-14  0.1696E-15
    -22.762  0.8048E-10  0.8137E-11
    -22.661  0.5083E-06  0.5140E-07
    -22.560  0.4429E-03  0.4483E-04
    -22.459  0.5530E-01  0.5636E-02
    -22.358  0.1059E+01  0.1127E+00
    -22.257  0.3553E+01  0.4718E+00
    -22.156  0.4610E+01  0.9380E+00
    -22.055  0.9535E+01  0.1902E+01
    -21.953  0.1404E+02  0.3322E+01
    -21.852  0.1303E+02  0.4640E+01
    -21.751  0.9136E+01  0.5563E+01
    -21.650  0.1184E+02  0.6760E+01
    -21.549  0.1268E+02  0.8042E+01
    -21.448  0.1180E+02  0.9235E+01
    -21.347  0.1363E+02  0.1061E+02
    -21.246  0.1265E+02  0.1189E+02
    -21.145  0.9395E+01  0.1284E+02
    -21.044  0.5836E+01  0.1343E+02
    -20.942  0.5480E+01  0.1399E+02
    -20.841  0.6219E+01  0.1461E+02
    -20.740  0.5693E+01  0.1519E+02
    -20.639  0.4919E+01  0.1569E+02
    -20.538  0.2703E+01  0.1596E+02
    -20.437  0.3756E+00  0.1600E+02
    -20.336  0.8820E-02  0.1600E+02
    -20.235  0.3081E-04  0.1600E+02
    -20.134  0.1512E-07  0.1600E+02
    -20.032  0.1011E-11  0.1600E+02
    -19.931  0.0000E+00  0.1600E+02
    -19.830  0.0000E+00  0.1600E+02
    -19.729  0.0000E+00  0.1600E+02
    -19.628  0.0000E+00  0.1600E+02
    -19.527  0.0000E+00  0.1600E+02
    -19.426  0.0000E+00  0.1600E+02
    -19.325  0.0000E+00  0.1600E+02
    -19.224  0.0000E+00  0.1600E+02
    -19.123  0.0000E+00  0.1600E+02
    -19.021  0.0000E+00  0.1600E+02
    -18.920  0.0000E+00  0.1600E+02
    -18.819  0.0000E+00  0.1600E+02
    -18.718  0.0000E+00  0.1600E+02
    -18.617  0.0000E+00  0.1600E+02
    -18.516  0.0000E+00  0.1600E+02
    -18.415  0.0000E+00  0.1600E+02
    -18.314  0.0000E+00  0.1600E+02
    -18.213  0.0000E+00  0.1600E+02
    -18.111  0.0000E+00  0.1600E+02
    -18.010  0.0000E+00  0.1600E+02
    -17.909  0.0000E+00  0.1600E+02
    -17.808  0.0000E+00  0.1600E+02
    -17.707  0.0000E+00  0.1600E+02
    -17.606  0.0000E+00  0.1600E+02
    -17.505  0.0000E+00  0.1600E+02
    -17.404  0.0000E+00  0.1600E+02
    -17.303  0.0000E+00  0.1600E+02
    -17.202  0.0000E+00  0.1600E+02
    -17.100  0.0000E+00  0.1600E+02
    -16.999  0.0000E+00  0.1600E+02
    -16.898  0.0000E+00  0.1600E+02
    -16.797  0.0000E+00  0.1600E+02
    -16.696  0.0000E+00  0.1600E+02
    -16.595  0.0000E+00  0.1600E+02
    -16.494  0.0000E+00  0.1600E+02
    -16.393  0.0000E+00  0.1600E+02
    -16.292  0.0000E+00  0.1600E+02
    -16.191  0.0000E+00  0.1600E+02
    -16.089  0.0000E+00  0.1600E+02
    -15.988  0.0000E+00  0.1600E+02
    -15.887  0.0000E+00  0.1600E+02
    -15.786  0.0000E+00  0.1600E+02
    -15.685  0.0000E+00  0.1600E+02
    -15.584  0.0000E+00  0.1600E+02
    -15.483  0.0000E+00  0.1600E+02
    -15.382  0.0000E+00  0.1600E+02
    -15.281  0.0000E+00  0.1600E+02
    -15.179  0.0000E+00  0.1600E+02
    -15.078  0.0000E+00  0.1600E+02
    -14.977  0.0000E+00  0.1600E+02
    -14.876  0.0000E+00  0.1600E+02
    -14.775  0.0000E+00  0.1600E+02
    -14.674  0.0000E+00  0.1600E+02
    -14.573  0.0000E+00  0.1600E+02
    -14.472  0.0000E+00  0.1600E+02
    -14.371  0.0000E+00  0.1600E+02
    -14.270  0.0000E+00  0.1600E+02
    -14.168  0.0000E+00  0.1600E+02
    -14.067  0.0000E+00  0.1600E+02
    -13.966  0.0000E+00  0.1600E+02
    -13.865  0.0000E+00  0.1600E+02
    -13.764  0.0000E+00  0.1600E+02
    -13.663  0.0000E+00  0.1600E+02
    -13.562  0.0000E+00  0.1600E+02
    -13.461  0.0000E+00  0.1600E+02
    -13.360  0.0000E+00  0.1600E+02
    -13.258  0.0000E+00  0.1600E+02
    -13.157  0.0000E+00  0.1600E+02
    -13.056  0.0000E+00  0.1600E+02
    -12.955  0.0000E+00  0.1600E+02
    -12.854  0.0000E+00  0.1600E+02
    -12.753  0.0000E+00  0.1600E+02
    -12.652  0.0000E+00  0.1600E+02
    -12.551  0.0000E+00  0.1600E+02
    -12.450  0.0000E+00  0.1600E+02
    -12.349  0.0000E+00  0.1600E+02
    -12.247  0.0000E+00  0.1600E+02
    -12.146  0.0000E+00  0.1600E+02
    -12.045  0.0000E+00  0.1600E+02
    -11.944  0.0000E+00  0.1600E+02
    -11.843  0.0000E+00  0.1600E+02
    -11.742  0.0000E+00  0.1600E+02
    -11.641  0.0000E+00  0.1600E+02
    -11.540  0.0000E+00  0.1600E+02
    -11.439  0.0000E+00  0.1600E+02
    -11.338  0.0000E+00  0.1600E+02
    -11.236  0.0000E+00  0.1600E+02
    -11.135  0.0000E+00  0.1600E+02
    -11.034  0.0000E+00  0.1600E+02
    -10.933  0.0000E+00  0.1600E+02
    -10.832  0.0000E+00  0.1600E+02
    -10.731  0.0000E+00  0.1600E+02
    -10.630  0.3660E-15  0.1600E+02
    -10.529  0.2429E-10  0.1600E+02
    -10.428  0.1958E-06  0.1600E+02
    -10.326  0.2169E-03  0.1600E+02
    -10.225  0.3419E-01  0.1600E+02
    -10.124  0.8160E+00  0.1609E+02
    -10.023  0.3225E+01  0.1641E+02
     -9.922  0.2611E+01  0.1668E+02
     -9.821  0.4722E+01  0.1715E+02
     -9.720  0.1170E+02  0.1834E+02
     -9.619  0.1138E+02  0.1949E+02
     -9.518  0.1153E+02  0.2065E+02
     -9.417  0.1606E+02  0.2228E+02
     -9.315  0.1557E+02  0.2385E+02
     -9.214  0.1159E+02  0.2502E+02
     -9.113  0.1352E+02  0.2639E+02
     -9.012  0.1512E+02  0.2792E+02
     -8.911  0.1256E+02  0.2919E+02
     -8.810  0.1416E+02  0.3062E+02
     -8.709  0.1151E+02  0.3178E+02
     -8.608  0.7047E+01  0.3250E+02
     -8.507  0.4477E+01  0.3295E+02
     -8.405  0.1722E+01  0.3312E+02
     -8.304  0.4105E+00  0.3316E+02
     -8.203  0.9690E-01  0.3317E+02
     -8.102  0.7911E+00  0.3325E+02
     -8.001  0.2088E+01  0.3347E+02
     -7.900  0.2192E+01  0.3369E+02
     -7.799  0.1389E+01  0.3383E+02
     -7.698  0.1709E+01  0.3400E+02
     -7.597  0.2531E+01  0.3426E+02
     -7.496  0.3301E+01  0.3459E+02
     -7.394  0.3630E+01  0.3496E+02
     -7.293  0.4408E+01  0.3540E+02
     -7.192  0.5349E+01  0.3594E+02
     -7.091  0.6123E+01  0.3656E+02
     -6.990  0.8436E+01  0.3742E+02
     -6.889  0.1249E+02  0.3868E+02
     -6.788  0.1281E+02  0.3997E+02
     -6.687  0.1096E+02  0.4108E+02
     -6.586  0.1344E+02  0.4244E+02
     -6.485  0.1862E+02  0.4432E+02
     -6.383  0.2110E+02  0.4646E+02
     -6.282  0.2299E+02  0.4878E+02
     -6.181  0.2573E+02  0.5138E+02
     -6.080  0.2943E+02  0.5436E+02
     -5.979  0.2967E+02  0.5736E+02
     -5.878  0.2830E+02  0.6022E+02
     -5.777  0.2575E+02  0.6282E+02
     -5.676  0.2172E+02  0.6502E+02
     -5.575  0.1680E+02  0.6672E+02
     -5.473  0.1687E+02  0.6842E+02
     -5.372  0.1942E+02  0.7039E+02
     -5.271  0.1781E+02  0.7219E+02
     -5.170  0.1439E+02  0.7364E+02
     -5.069  0.1540E+02  0.7520E+02
     -4.968  0.1629E+02  0.7685E+02
     -4.867  0.1428E+02  0.7829E+02
     -4.766  0.1805E+02  0.8011E+02
     -4.665  0.2731E+02  0.8288E+02
     -4.564  0.2888E+02  0.8580E+02
     -4.462  0.2017E+02  0.8783E+02
     -4.361  0.1766E+02  0.8962E+02
     -4.260  0.2137E+02  0.9178E+02
     -4.159  0.3109E+02  0.9492E+02
     -4.058  0.3494E+02  0.9846E+02
     -3.957  0.3156E+02  0.1016E+03
     -3.856  0.3040E+02  0.1047E+03
     -3.755  0.3369E+02  0.1081E+03
     -3.654  0.3738E+02  0.1119E+03
     -3.552  0.3928E+02  0.1159E+03
     -3.451  0.3656E+02  0.1196E+03
     -3.350  0.3350E+02  0.1230E+03
     -3.249  0.3482E+02  0.1265E+03
     -3.148  0.3298E+02  0.1298E+03
     -3.047  0.3017E+02  0.1329E+03
     -2.946  0.2706E+02  0.1356E+03
     -2.845  0.2209E+02  0.1378E+03
     -2.744  0.1767E+02  0.1396E+03
     -2.643  0.1405E+02  0.1410E+03
     -2.541  0.1460E+02  0.1425E+03
     -2.440  0.1714E+02  0.1443E+03
     -2.339  0.1991E+02  0.1463E+03
     -2.238  0.2138E+02  0.1484E+03
     -2.137  0.2338E+02  0.1508E+03
     -2.036  0.2478E+02  0.1533E+03
     -1.935  0.2359E+02  0.1557E+03
     -1.834  0.2096E+02  0.1578E+03
     -1.733  0.1730E+02  0.1595E+03
     -1.631  0.1756E+02  0.1613E+03
     -1.530  0.1609E+02  0.1630E+03
     -1.429  0.1444E+02  0.1644E+03
     -1.328  0.1750E+02  0.1662E+03
     -1.227  0.1992E+02  0.1682E+03
     -1.126  0.1969E+02  0.1702E+03
     -1.025  0.2168E+02  0.1724E+03
     -0.924  0.2415E+02  0.1748E+03
     -0.823  0.2658E+02  0.1775E+03
     -0.722  0.3040E+02  0.1806E+03
     -0.620  0.2925E+02  0.1835E+03
     -0.519  0.2466E+02  0.1860E+03
     -0.418  0.1873E+02  0.1879E+03
     -0.317  0.1665E+02  0.1896E+03
     -0.216  0.1210E+02  0.1908E+03
     -0.115  0.6170E+01  0.1915E+03
     -0.014  0.4901E+01  0.1920E+03
      0.087  0.3852E+01  0.1923E+03
      0.188  0.3951E+01  0.1927E+03
      0.289  0.5019E+01  0.1932E+03
      0.391  0.5002E+01  0.1938E+03
      0.492  0.4602E+01  0.1942E+03
      0.593  0.5151E+01  0.1947E+03
      0.694  0.4170E+01  0.1952E+03
      0.795  0.1938E+01  0.1954E+03
      0.896  0.3289E+01  0.1957E+03
      0.997  0.3841E+01  0.1961E+03
      1.098  0.3167E+01  0.1964E+03
      1.199  0.4013E+01  0.1968E+03
      1.301  0.3473E+01  0.1972E+03
      1.402  0.2607E+01  0.1974E+03
      1.503  0.4565E+01  0.1979E+03
      1.604  0.7942E+01  0.1987E+03
      1.705  0.5465E+01  0.1992E+03
      1.806  0.2031E+01  0.1994E+03
      1.907  0.1758E+01  0.1996E+03
      2.008  0.3378E+01  0.2000E+03
      2.109  0.4844E+01  0.2004E+03
      2.210  0.5727E+01  0.2010E+03
      2.312  0.6407E+01  0.2017E+03
      2.413  0.6316E+01  0.2023E+03
      2.514  0.5071E+01  0.2028E+03
      2.615  0.4621E+01  0.2033E+03
      2.716  0.6329E+01  0.2039E+03
      2.817  0.6109E+01  0.2046E+03
      2.918  0.5732E+01  0.2051E+03
      3.019  0.4663E+01  0.2056E+03
      3.120  0.3740E+01  0.2060E+03
      3.222  0.6052E+01  0.2066E+03
      3.323  0.6789E+01  0.2073E+03
      3.424  0.6887E+01  0.2080E+03
      3.525  0.6945E+01  0.2087E+03
      3.626  0.5443E+01  0.2092E+03
      3.727  0.5255E+01  0.2098E+03
      3.828  0.4044E+01  0.2102E+03
      3.929  0.4381E+01  0.2106E+03
      4.030  0.5751E+01  0.2112E+03
      4.131  0.8013E+01  0.2120E+03
      4.233  0.8473E+01  0.2129E+03
      4.334  0.8272E+01  0.2137E+03
      4.435  0.9023E+01  0.2146E+03
      4.536  0.9575E+01  0.2156E+03
      4.637  0.7330E+01  0.2163E+03
      4.738  0.6225E+01  0.2169E+03
      4.839  0.6339E+01  0.2176E+03
      4.940  0.6815E+01  0.2183E+03
      5.041  0.7535E+01  0.2190E+03
      5.142  0.6869E+01  0.2197E+03
      5.244  0.5283E+01  0.2203E+03
      5.345  0.3247E+01  0.2206E+03
      5.446  0.6710E+00  0.2207E+03
      5.547  0.2832E-01  0.2207E+03
      5.648  0.2020E-03  0.2207E+03
      5.749  0.2197E-06  0.2207E+03
      5.850  0.3427E-10  0.2207E+03
      5.951  0.7321E-15  0.2207E+03
      6.052  0.0000E+00  0.2207E+03
      6.154  0.0000E+00  0.2207E+03
      6.255  0.0000E+00  0.2207E+03
      6.356  0.0000E+00  0.2207E+03
      6.457  0.0000E+00  0.2207E+03
      6.558  0.0000E+00  0.2207E+03
      6.659  0.0000E+00  0.2207E+03
