PtH2O                                   
           1
     8.345889    0.000000    0.000000
     0.000000    9.637002    0.000000
     0.000000    0.000000   32.542926
   H    O    Pt
  48  24  36
Direct configuration=     1
   0.21304072  0.45473931  0.50846637
   0.21313953  0.48322638  0.46223750
   0.76800071  0.84395059  0.46389812
   0.79007906  0.68469112  0.47410776
   0.61933552  0.98255804  0.50891211
   0.60094013  0.05133927  0.46527834
   0.05664838  0.72157111  0.45643511
   0.22729339  0.81313392  0.45858715
   0.30995377  0.21739743  0.67377805
   0.39448449  0.07992921  0.67848112
   0.78763158  0.53723784  0.59189330
   0.77729185  0.69351013  0.59701401
   0.86920694  0.41458479  0.75671171
   0.75847196  0.35925057  0.72218012
   0.46249583  0.79736345  0.69600434
   0.59768818  0.91170549  0.70050119
   0.45781954  0.72681888  0.61809471
   0.23432551  0.14209239  0.56315336
   0.20113777  0.82338187  0.63484843
   0.15300227  0.93073762  0.67266949
   0.67142786  0.53306928  0.65708636
   0.55961679  0.39640487  0.66719781
   0.79583864  0.05070336  0.62617284
   0.63003694  0.10722019  0.63868816
   0.81755513  0.14457686  0.49575877
   0.97076448  0.18783654  0.46888216
   0.25950972  0.04432755  0.46650293
   0.27690745  0.98967208  0.51056637
   0.95647623  0.85344705  0.62195472
   0.97798737  0.91448103  0.58166585
   0.49219629  0.39173037  0.47655866
   0.60697833  0.28173623  0.45854343
   0.85799104  0.31473033  0.55504439
   0.85479962  0.26413980  0.60242627
   0.46042218  0.20984795  0.58486482
   0.47460863  0.27484346  0.54295919
   0.26592930  0.42601696  0.58859568
   0.09049688  0.44247483  0.58279942
   0.06417007  0.16268027  0.71145434
   0.94324955  0.13081662  0.67910248
   0.08650200  0.12460991  0.53763927
   0.32747525  0.67975753  0.58583665
   0.72577221  0.44177779  0.50478582
   0.72011999  0.56395148  0.53544921
   0.49351414  0.91173040  0.57385472
   0.67300859  0.97609502  0.57829188
   0.27805943  0.64673476  0.69434894
   0.44761443  0.57550908  0.69490640
   0.23732503  0.41305842  0.48205722
   0.82944579  0.76109403  0.45865413
   0.67677882  0.99416720  0.48256782
   0.17643603  0.71301921  0.44872599
   0.41221577  0.17200732  0.66485980
   0.71289476  0.61060449  0.60335576
   0.84129998  0.32656124  0.74132906
   0.51124913  0.88732275  0.68330687
   0.15492939  0.07277627  0.55636403
   0.12359361  0.84747316  0.65794073
   0.62031697  0.47320872  0.67858442
   0.74819780  0.12928821  0.63999565
   0.93199981  0.16886856  0.49759140
   0.29615489  0.96309924  0.48118050
   0.88804888  0.87257934  0.59780850
   0.57352959  0.32688353  0.48433762
   0.88119777  0.34760765  0.58351438
   0.41679770  0.28517072  0.56870608
   0.18984143  0.49810886  0.58136179
   0.05709588  0.12763679  0.68340728
   0.36297681  0.75704748  0.60297714
   0.77943994  0.53397673  0.51168999
   0.56025534  0.99214768  0.56725670
   0.38993735  0.65923642  0.70340099
   0.16666667  0.08333333  0.24123678
   0.50000000  0.08333333  0.24123678
   0.83333333  0.08333333  0.24123678
   0.00000000  0.33333333  0.24123678
   0.33333333  0.33333333  0.24123678
   0.66666667  0.33333333  0.24123678
   0.16666667  0.58333333  0.24123678
   0.50000000  0.58333333  0.24123678
   0.83333333  0.58333333  0.24123678
   0.00000000  0.83333333  0.24123678
   0.33333333  0.83333333  0.24123678
   0.66666667  0.83333333  0.24123678
   0.00000000  0.16666667  0.31103576
   0.33333333  0.16666667  0.31103576
   0.66666667  0.16666667  0.31103576
   0.16666667  0.41666667  0.31103576
   0.50000000  0.41666667  0.31103576
   0.83333333  0.41666667  0.31103576
   0.00000000  0.66666667  0.31103576
   0.33333333  0.66666667  0.31103576
   0.66666667  0.66666667  0.31103576
   0.16666667  0.91666667  0.31103576
   0.50000000  0.91666667  0.31103576
   0.83333333  0.91666667  0.31103576
   0.99865360  0.00751246  0.38569333
   0.34518137  0.99232034  0.38364119
   0.66998172  0.00000355  0.38190363
   0.15744833  0.24610335  0.38832232
   0.50669335  0.25482928  0.38470810
   0.83314722  0.23941238  0.38235599
   0.97350298  0.49088964  0.38689777
   0.31257618  0.48855631  0.38084694
   0.64527209  0.51491559  0.38583878
   0.15484848  0.73944978  0.38165429
   0.48295249  0.75493364  0.38333483
   0.81931142  0.75544931  0.38234597
Direct configuration=     2
   0.21514620  0.45419869  0.50896824
   0.21348096  0.48421651  0.46188797
   0.76672298  0.84335152  0.46342749
   0.79117835  0.68465845  0.47509080
   0.61782655  0.98291694  0.50839970
   0.60059003  0.05127607  0.46531859
   0.05528574  0.72071849  0.45597761
   0.22874989  0.81363136  0.45922141
   0.30918104  0.21638997  0.67323588
   0.39328584  0.07900019  0.67770245
   0.78403057  0.53785716  0.59195454
   0.78206169  0.69628150  0.59637271
   0.87332143  0.41224436  0.75621953
   0.76146517  0.36068620  0.72215496
   0.46483894  0.79685818  0.69538958
   0.59831293  0.91492487  0.70057762
   0.45524490  0.72780400  0.61837364
   0.23282627  0.14378480  0.56348038
   0.20224286  0.82457157  0.63430452
   0.15288312  0.92946281  0.67256507
   0.66986007  0.53441887  0.65666173
   0.55949243  0.39743009  0.66777365
   0.79443634  0.05040994  0.62557938
   0.62823229  0.10817027  0.63791369
   0.81482984  0.14325842  0.49506506
   0.97139394  0.18732882  0.46905673
   0.25703228  0.04459797  0.46654927
   0.27343094  0.98848074  0.51064240
   0.95737048  0.85287208  0.62187776
   0.97918150  0.91329774  0.58101213
   0.49222508  0.39163506  0.47719506
   0.60638978  0.27982047  0.45861186
   0.86112720  0.31554672  0.55531792
   0.85234350  0.26273336  0.60134789
   0.45694306  0.20832913  0.58448804
   0.47372895  0.27437729  0.54338518
   0.26819830  0.42627366  0.58952977
   0.09116799  0.44328574  0.58240916
   0.06199248  0.16545952  0.71176599
   0.94556258  0.13268089  0.67921455
   0.08254301  0.12366157  0.53683445
   0.32671062  0.67675993  0.58618927
   0.72761923  0.44012379  0.50552715
   0.72141614  0.56308703  0.53565220
   0.49480734  0.91313238  0.57394150
   0.67437098  0.97539889  0.57795480
   0.27990375  0.64683514  0.69460190
   0.44419487  0.57481852  0.69479485
   0.23628212  0.41295722  0.48196567
   0.82929744  0.76102065  0.45863006
   0.67637795  0.99396913  0.48271068
   0.17668502  0.71338608  0.44874755
   0.41149050  0.17197954  0.66477458
   0.71267850  0.61021584  0.60324195
   0.84142499  0.32656834  0.74121734
   0.51047859  0.88772486  0.68337533
   0.15469083  0.07280666  0.55631658
   0.12331827  0.84775983  0.65774769
   0.62137388  0.47275763  0.67864281
   0.74825368  0.12877765  0.64011305
   0.93215192  0.16860000  0.49759553
   0.29614765  0.96281000  0.48120609
   0.88974124  0.87138084  0.59798103
   0.57389438  0.32722193  0.48426286
   0.88138405  0.34754898  0.58351047
   0.41716938  0.28501086  0.56882139
   0.18958714  0.49862812  0.58149243
   0.05686157  0.12727624  0.68347600
   0.36263143  0.75684672  0.60282162
   0.77886059  0.53361100  0.51181965
   0.56091876  0.99217282  0.56722566
   0.39045450  0.65976213  0.70335017
   0.16666667  0.08333333  0.24123678
   0.50000000  0.08333333  0.24123678
   0.83333333  0.08333333  0.24123678
   0.00000000  0.33333333  0.24123678
   0.33333333  0.33333333  0.24123678
   0.66666667  0.33333333  0.24123678
   0.16666667  0.58333333  0.24123678
   0.50000000  0.58333333  0.24123678
   0.83333333  0.58333333  0.24123678
   0.00000000  0.83333333  0.24123678
   0.33333333  0.83333333  0.24123678
   0.66666667  0.83333333  0.24123678
   0.00000000  0.16666667  0.31103576
   0.33333333  0.16666667  0.31103576
   0.66666667  0.16666667  0.31103576
   0.16666667  0.41666667  0.31103576
   0.50000000  0.41666667  0.31103576
   0.83333333  0.41666667  0.31103576
   0.00000000  0.66666667  0.31103576
   0.33333333  0.66666667  0.31103576
   0.66666667  0.66666667  0.31103576
   0.16666667  0.91666667  0.31103576
   0.50000000  0.91666667  0.31103576
   0.83333333  0.91666667  0.31103576
   0.99849780  0.00748997  0.38571827
   0.34526899  0.99248136  0.38359899
   0.66969984  0.99997396  0.38195258
   0.15757829  0.24601165  0.38830155
   0.50660868  0.25492119  0.38468078
   0.83310027  0.23956080  0.38231358
   0.97381188  0.49083188  0.38686788
   0.31256625  0.48837414  0.38084524
   0.64502549  0.51504719  0.38583655
   0.15500755  0.73957120  0.38164870
   0.48283414  0.75506535  0.38333439
   0.81913745  0.75564918  0.38238642
Direct configuration=     3
   0.21718276  0.45370575  0.50944242
   0.21359850  0.48563346  0.46145650
   0.76464423  0.84381027  0.46308874
   0.79163932  0.68362275  0.47622188
   0.61592070  0.98313924  0.50805490
   0.60107984  0.05010223  0.46549863
   0.05576504  0.72004671  0.45544595
   0.22898910  0.81220040  0.45973313
   0.30904987  0.21527685  0.67250768
   0.39295277  0.07840369  0.67676741
   0.78008935  0.53798807  0.59214852
   0.78550848  0.69799560  0.59592980
   0.87716624  0.40901095  0.75559347
   0.76406469  0.36236356  0.72198021
   0.46760511  0.79716955  0.69462001
   0.59954938  0.91832424  0.70077276
   0.45303366  0.72852022  0.61873643
   0.23161861  0.14571207  0.56388439
   0.20282807  0.82636385  0.63424224
   0.15310385  0.92915415  0.67247440
   0.66748022  0.53465561  0.65632107
   0.55931373  0.39782882  0.66809328
   0.79349779  0.04955989  0.62497251
   0.62838390  0.10972355  0.63725144
   0.81378365  0.14172780  0.49430235
   0.97147330  0.18672220  0.46947042
   0.25450055  0.04481898  0.46648343
   0.26976683  0.98690146  0.51054866
   0.95852131  0.85211372  0.62219265
   0.97905709  0.91179409  0.58039642
   0.49062669  0.39228556  0.47765114
   0.60555300  0.27836659  0.45867818
   0.86458798  0.31651386  0.55562869
   0.85016420  0.26291057  0.60003725
   0.45388213  0.20607139  0.58434349
   0.47325041  0.27410059  0.54346818
   0.27043377  0.42705525  0.59032558
   0.09127764  0.44430268  0.58200243
   0.05987762  0.16805937  0.71189825
   0.94544854  0.13461892  0.67911171
   0.07863278  0.12221199  0.53609457
   0.32602181  0.67393880  0.58668064
   0.72985223  0.43962068  0.50618394
   0.72206726  0.56268108  0.53610356
   0.49581449  0.91379370  0.57416818
   0.67354147  0.97445341  0.57744609
   0.28152546  0.64738170  0.69484835
   0.44176299  0.57383918  0.69467043
   0.23525848  0.41282888  0.48188458
   0.82926371  0.76092375  0.45858683
   0.67591035  0.99384980  0.48283590
   0.17687042  0.71391286  0.44879131
   0.41067486  0.17193597  0.66470548
   0.71257257  0.60991794  0.60311218
   0.84160157  0.32661584  0.74112114
   0.50966174  0.88812012  0.68343971
   0.15441612  0.07284314  0.55625652
   0.12305336  0.84792658  0.65752084
   0.62248801  0.47238590  0.67870858
   0.74818355  0.12825712  0.64022555
   0.93225958  0.16835594  0.49758928
   0.29613559  0.96252872  0.48124618
   0.89150750  0.87023111  0.59812813
   0.57437024  0.32747675  0.48420051
   0.88153838  0.34739170  0.58351876
   0.41749907  0.28487081  0.56894557
   0.18936818  0.49910926  0.58162833
   0.05677534  0.12693744  0.68357467
   0.36225004  0.75665652  0.60264991
   0.77828512  0.53316637  0.51193399
   0.56173354  0.99224544  0.56719527
   0.39089946  0.66025407  0.70330726
   0.16666667  0.08333333  0.24123678
   0.50000000  0.08333333  0.24123678
   0.83333333  0.08333333  0.24123678
   0.00000000  0.33333333  0.24123678
   0.33333333  0.33333333  0.24123678
   0.66666667  0.33333333  0.24123678
   0.16666667  0.58333333  0.24123678
   0.50000000  0.58333333  0.24123678
   0.83333333  0.58333333  0.24123678
   0.00000000  0.83333333  0.24123678
   0.33333333  0.83333333  0.24123678
   0.66666667  0.83333333  0.24123678
   0.00000000  0.16666667  0.31103576
   0.33333333  0.16666667  0.31103576
   0.66666667  0.16666667  0.31103576
   0.16666667  0.41666667  0.31103576
   0.50000000  0.41666667  0.31103576
   0.83333333  0.41666667  0.31103576
   0.00000000  0.66666667  0.31103576
   0.33333333  0.66666667  0.31103576
   0.66666667  0.66666667  0.31103576
   0.16666667  0.91666667  0.31103576
   0.50000000  0.91666667  0.31103576
   0.83333333  0.91666667  0.31103576
   0.99834415  0.00746310  0.38574285
   0.34535117  0.99264972  0.38355624
   0.66941452  0.99994569  0.38200196
   0.15771138  0.24591954  0.38828014
   0.50652058  0.25501243  0.38465304
   0.83305155  0.23971359  0.38227154
   0.97412345  0.49077442  0.38683705
   0.31255893  0.48819167  0.38084382
   0.64477859  0.51517591  0.38583387
   0.15516648  0.73969464  0.38164329
   0.48271889  0.75519408  0.38333382
   0.81896387  0.75584693  0.38242743
