 108 108   0   0
  0.2423524E+02  0.8345889E-09  0.9637002E-09  0.3254293E-08  0.5000000E-15
  1.000000000000000E-004
  CAR 
 CuH2O                                   
      6.41874506    -25.43240570  301     -0.47070972      1.00000000
    -25.432  0.0000E+00  0.0000E+00
    -25.326  0.0000E+00  0.0000E+00
    -25.220  0.0000E+00  0.0000E+00
    -25.114  0.0000E+00  0.0000E+00
    -25.008  0.0000E+00  0.0000E+00
    -24.902  0.0000E+00  0.0000E+00
    -24.795  0.0000E+00  0.0000E+00
    -24.689  0.0000E+00  0.0000E+00
    -24.583  0.0000E+00  0.0000E+00
    -24.477  0.3128E-10  0.3321E-11
    -24.371  0.4435E-06  0.4709E-07
    -24.265  0.7041E-03  0.7480E-04
    -24.158  0.1305E+00  0.1393E-01
    -24.052  0.3055E+01  0.3383E+00
    -23.946  0.1013E+02  0.1414E+01
    -23.840  0.5139E+01  0.1959E+01
    -23.734  0.3807E+00  0.2000E+01
    -23.628  0.3667E-02  0.2000E+01
    -23.521  0.4196E-05  0.2000E+01
    -23.415  0.5424E-09  0.2000E+01
    -23.309  0.8366E-14  0.2000E+01
    -23.203  0.0000E+00  0.2000E+01
    -23.097  0.0000E+00  0.2000E+01
    -22.990  0.0000E+00  0.2000E+01
    -22.884  0.0000E+00  0.2000E+01
    -22.778  0.0000E+00  0.2000E+01
    -22.672  0.0000E+00  0.2000E+01
    -22.566  0.6893E-13  0.2000E+01
    -22.460  0.3239E-08  0.2000E+01
    -22.353  0.1683E-04  0.2000E+01
    -22.247  0.9951E-02  0.2001E+01
    -22.141  0.7100E+00  0.2076E+01
    -22.035  0.6998E+01  0.2819E+01
    -21.929  0.1551E+02  0.4466E+01
    -21.823  0.2202E+02  0.6804E+01
    -21.716  0.1856E+02  0.8775E+01
    -21.610  0.2351E+02  0.1127E+02
    -21.504  0.2653E+02  0.1409E+02
    -21.398  0.3422E+02  0.1772E+02
    -21.292  0.4092E+02  0.2207E+02
    -21.186  0.1951E+02  0.2414E+02
    -21.079  0.1798E+02  0.2605E+02
    -20.973  0.2809E+02  0.2903E+02
    -20.867  0.2218E+02  0.3138E+02
    -20.761  0.3088E+02  0.3466E+02
    -20.655  0.3798E+02  0.3869E+02
    -20.549  0.2484E+02  0.4133E+02
    -20.442  0.2687E+02  0.4418E+02
    -20.336  0.1469E+02  0.4574E+02
    -20.230  0.2362E+01  0.4599E+02
    -20.124  0.6934E-01  0.4600E+02
    -20.018  0.2692E-03  0.4600E+02
    -19.912  0.1223E-06  0.4600E+02
    -19.805  0.6200E-11  0.4600E+02
    -19.699  0.2297E-12  0.4600E+02
    -19.593  0.8619E-08  0.4600E+02
    -19.487  0.3577E-04  0.4600E+02
    -19.381  0.1696E-01  0.4600E+02
    -19.275  0.9759E+00  0.4611E+02
    -19.168  0.7544E+01  0.4691E+02
    -19.062  0.8734E+01  0.4783E+02
    -18.956  0.1531E+01  0.4800E+02
    -18.850  0.3672E-01  0.4800E+02
    -18.744  0.1083E-03  0.4800E+02
    -18.637  0.3676E-07  0.4800E+02
    -18.531  0.1386E-11  0.4800E+02
    -18.425  0.0000E+00  0.4800E+02
    -18.319  0.0000E+00  0.4800E+02
    -18.213  0.0000E+00  0.4800E+02
    -18.107  0.0000E+00  0.4800E+02
    -18.000  0.0000E+00  0.4800E+02
    -17.894  0.0000E+00  0.4800E+02
    -17.788  0.0000E+00  0.4800E+02
    -17.682  0.0000E+00  0.4800E+02
    -17.576  0.0000E+00  0.4800E+02
    -17.470  0.0000E+00  0.4800E+02
    -17.363  0.0000E+00  0.4800E+02
    -17.257  0.0000E+00  0.4800E+02
    -17.151  0.0000E+00  0.4800E+02
    -17.045  0.0000E+00  0.4800E+02
    -16.939  0.0000E+00  0.4800E+02
    -16.833  0.0000E+00  0.4800E+02
    -16.726  0.0000E+00  0.4800E+02
    -16.620  0.0000E+00  0.4800E+02
    -16.514  0.0000E+00  0.4800E+02
    -16.408  0.0000E+00  0.4800E+02
    -16.302  0.0000E+00  0.4800E+02
    -16.196  0.0000E+00  0.4800E+02
    -16.089  0.0000E+00  0.4800E+02
    -15.983  0.0000E+00  0.4800E+02
    -15.877  0.0000E+00  0.4800E+02
    -15.771  0.0000E+00  0.4800E+02
    -15.665  0.0000E+00  0.4800E+02
    -15.559  0.0000E+00  0.4800E+02
    -15.452  0.0000E+00  0.4800E+02
    -15.346  0.0000E+00  0.4800E+02
    -15.240  0.0000E+00  0.4800E+02
    -15.134  0.0000E+00  0.4800E+02
    -15.028  0.0000E+00  0.4800E+02
    -14.922  0.0000E+00  0.4800E+02
    -14.815  0.0000E+00  0.4800E+02
    -14.709  0.0000E+00  0.4800E+02
    -14.603  0.0000E+00  0.4800E+02
    -14.497  0.0000E+00  0.4800E+02
    -14.391  0.0000E+00  0.4800E+02
    -14.285  0.0000E+00  0.4800E+02
    -14.178  0.0000E+00  0.4800E+02
    -14.072  0.0000E+00  0.4800E+02
    -13.966  0.0000E+00  0.4800E+02
    -13.860  0.0000E+00  0.4800E+02
    -13.754  0.0000E+00  0.4800E+02
    -13.647  0.0000E+00  0.4800E+02
    -13.541  0.0000E+00  0.4800E+02
    -13.435  0.0000E+00  0.4800E+02
    -13.329  0.0000E+00  0.4800E+02
    -13.223  0.0000E+00  0.4800E+02
    -13.117  0.0000E+00  0.4800E+02
    -13.010  0.0000E+00  0.4800E+02
    -12.904  0.0000E+00  0.4800E+02
    -12.798  0.0000E+00  0.4800E+02
    -12.692  0.0000E+00  0.4800E+02
    -12.586  0.0000E+00  0.4800E+02
    -12.480  0.0000E+00  0.4800E+02
    -12.373  0.0000E+00  0.4800E+02
    -12.267  0.0000E+00  0.4800E+02
    -12.161  0.0000E+00  0.4800E+02
    -12.055  0.0000E+00  0.4800E+02
    -11.949  0.0000E+00  0.4800E+02
    -11.843  0.0000E+00  0.4800E+02
    -11.736  0.0000E+00  0.4800E+02
    -11.630  0.0000E+00  0.4800E+02
    -11.524  0.0000E+00  0.4800E+02
    -11.418  0.0000E+00  0.4800E+02
    -11.312  0.0000E+00  0.4800E+02
    -11.206  0.0000E+00  0.4800E+02
    -11.099  0.0000E+00  0.4800E+02
    -10.993  0.0000E+00  0.4800E+02
    -10.887  0.0000E+00  0.4800E+02
    -10.781  0.0000E+00  0.4800E+02
    -10.675  0.0000E+00  0.4800E+02
    -10.569  0.0000E+00  0.4800E+02
    -10.462  0.0000E+00  0.4800E+02
    -10.356  0.0000E+00  0.4800E+02
    -10.250  0.1737E-10  0.4800E+02
    -10.144  0.2778E-06  0.4800E+02
    -10.038  0.4970E-03  0.4800E+02
     -9.932  0.1040E+00  0.4801E+02
     -9.825  0.2820E+01  0.4831E+02
     -9.719  0.1300E+02  0.4969E+02
     -9.613  0.2022E+02  0.5184E+02
     -9.507  0.2703E+02  0.5471E+02
     -9.401  0.3789E+02  0.5873E+02
     -9.294  0.4297E+02  0.6329E+02
     -9.188  0.3718E+02  0.6724E+02
     -9.082  0.1776E+02  0.6913E+02
     -8.976  0.1494E+02  0.7071E+02
     -8.870  0.1669E+02  0.7248E+02
     -8.764  0.2269E+02  0.7489E+02
     -8.657  0.2219E+02  0.7725E+02
     -8.551  0.4434E+02  0.8196E+02
     -8.445  0.3911E+02  0.8611E+02
     -8.339  0.2230E+02  0.8848E+02
     -8.233  0.2358E+02  0.9098E+02
     -8.127  0.2805E+02  0.9396E+02
     -8.020  0.2570E+02  0.9669E+02
     -7.914  0.2303E+02  0.9913E+02
     -7.808  0.1583E+02  0.1008E+03
     -7.702  0.5908E+01  0.1014E+03
     -7.596  0.6592E+01  0.1021E+03
     -7.490  0.1096E+02  0.1033E+03
     -7.383  0.1248E+02  0.1046E+03
     -7.277  0.1046E+02  0.1057E+03
     -7.171  0.8198E+01  0.1066E+03
     -7.065  0.1265E+02  0.1080E+03
     -6.959  0.1680E+02  0.1097E+03
     -6.853  0.2229E+02  0.1121E+03
     -6.746  0.4190E+02  0.1166E+03
     -6.640  0.4165E+02  0.1210E+03
     -6.534  0.2958E+02  0.1241E+03
     -6.428  0.4100E+02  0.1285E+03
     -6.322  0.5706E+02  0.1345E+03
     -6.216  0.4885E+02  0.1397E+03
     -6.109  0.5621E+02  0.1457E+03
     -6.003  0.8096E+02  0.1543E+03
     -5.897  0.9538E+02  0.1644E+03
     -5.791  0.9337E+02  0.1743E+03
     -5.685  0.8333E+02  0.1832E+03
     -5.579  0.7111E+02  0.1907E+03
     -5.472  0.4927E+02  0.1959E+03
     -5.366  0.3865E+02  0.2000E+03
     -5.260  0.4665E+02  0.2050E+03
     -5.154  0.5781E+02  0.2111E+03
     -5.048  0.5945E+02  0.2174E+03
     -4.941  0.5087E+02  0.2228E+03
     -4.835  0.4416E+02  0.2275E+03
     -4.729  0.4160E+02  0.2320E+03
     -4.623  0.6911E+02  0.2393E+03
     -4.517  0.9360E+02  0.2492E+03
     -4.411  0.8205E+02  0.2579E+03
     -4.304  0.5578E+02  0.2639E+03
     -4.198  0.4291E+02  0.2684E+03
     -4.092  0.5927E+02  0.2747E+03
     -3.986  0.8214E+02  0.2834E+03
     -3.880  0.7196E+02  0.2911E+03
     -3.774  0.7650E+02  0.2992E+03
     -3.667  0.8587E+02  0.3083E+03
     -3.561  0.8600E+02  0.3174E+03
     -3.455  0.1202E+03  0.3302E+03
     -3.349  0.1335E+03  0.3444E+03
     -3.243  0.1246E+03  0.3576E+03
     -3.137  0.1185E+03  0.3702E+03
     -3.030  0.1025E+03  0.3811E+03
     -2.924  0.9564E+02  0.3912E+03
     -2.818  0.9518E+02  0.4013E+03
     -2.712  0.8394E+02  0.4102E+03
     -2.606  0.6983E+02  0.4177E+03
     -2.500  0.5345E+02  0.4233E+03
     -2.393  0.4761E+02  0.4284E+03
     -2.287  0.4927E+02  0.4336E+03
     -2.181  0.6106E+02  0.4401E+03
     -2.075  0.6990E+02  0.4475E+03
     -1.969  0.7482E+02  0.4555E+03
     -1.863  0.7500E+02  0.4634E+03
     -1.756  0.7153E+02  0.4710E+03
     -1.650  0.5550E+02  0.4769E+03
     -1.544  0.4769E+02  0.4820E+03
     -1.438  0.5135E+02  0.4874E+03
     -1.332  0.4182E+02  0.4919E+03
     -1.226  0.4480E+02  0.4966E+03
     -1.119  0.5716E+02  0.5027E+03
     -1.013  0.5962E+02  0.5090E+03
     -0.907  0.6568E+02  0.5160E+03
     -0.801  0.7084E+02  0.5235E+03
     -0.695  0.7806E+02  0.5318E+03
     -0.589  0.9394E+02  0.5418E+03
     -0.482  0.8769E+02  0.5511E+03
     -0.376  0.7251E+02  0.5588E+03
     -0.270  0.5674E+02  0.5648E+03
     -0.164  0.4799E+02  0.5699E+03
     -0.058  0.2993E+02  0.5731E+03
      0.049  0.1612E+02  0.5748E+03
      0.155  0.1442E+02  0.5763E+03
      0.261  0.1079E+02  0.5775E+03
      0.367  0.1226E+02  0.5788E+03
      0.473  0.1577E+02  0.5804E+03
      0.579  0.1433E+02  0.5820E+03
      0.686  0.1480E+02  0.5835E+03
      0.792  0.1537E+02  0.5852E+03
      0.898  0.7158E+01  0.5859E+03
      1.004  0.7131E+01  0.5867E+03
      1.110  0.1176E+02  0.5879E+03
      1.216  0.1826E+02  0.5899E+03
      1.323  0.1995E+02  0.5920E+03
      1.429  0.1269E+02  0.5933E+03
      1.535  0.7777E+01  0.5942E+03
      1.641  0.1278E+02  0.5955E+03
      1.747  0.2238E+02  0.5979E+03
      1.853  0.1689E+02  0.5997E+03
      1.960  0.7358E+01  0.6005E+03
      2.066  0.7847E+01  0.6013E+03
      2.172  0.1101E+02  0.6025E+03
      2.278  0.1699E+02  0.6043E+03
      2.384  0.1746E+02  0.6061E+03
      2.490  0.2176E+02  0.6084E+03
      2.597  0.2318E+02  0.6109E+03
      2.703  0.1839E+02  0.6129E+03
      2.809  0.2047E+02  0.6150E+03
      2.915  0.1903E+02  0.6170E+03
      3.021  0.1781E+02  0.6189E+03
      3.127  0.1896E+02  0.6210E+03
      3.234  0.1793E+02  0.6229E+03
      3.340  0.2075E+02  0.6251E+03
      3.446  0.2194E+02  0.6274E+03
      3.552  0.2091E+02  0.6296E+03
      3.658  0.2569E+02  0.6323E+03
      3.764  0.2459E+02  0.6349E+03
      3.871  0.2252E+02  0.6373E+03
      3.977  0.1878E+02  0.6393E+03
      4.083  0.1661E+02  0.6411E+03
      4.189  0.2058E+02  0.6433E+03
      4.295  0.2646E+02  0.6461E+03
      4.402  0.3110E+02  0.6494E+03
      4.508  0.2908E+02  0.6525E+03
      4.614  0.2942E+02  0.6556E+03
      4.720  0.2407E+02  0.6582E+03
      4.826  0.1651E+02  0.6599E+03
      4.932  0.1270E+02  0.6613E+03
      5.039  0.6040E+01  0.6619E+03
      5.145  0.9212E+00  0.6620E+03
      5.251  0.2831E-01  0.6620E+03
      5.357  0.1316E-03  0.6620E+03
      5.463  0.7802E-07  0.6620E+03
      5.569  0.5380E-11  0.6620E+03
      5.676  0.0000E+00  0.6620E+03
      5.782  0.0000E+00  0.6620E+03
      5.888  0.0000E+00  0.6620E+03
      5.994  0.0000E+00  0.6620E+03
      6.100  0.0000E+00  0.6620E+03
      6.206  0.0000E+00  0.6620E+03
      6.313  0.0000E+00  0.6620E+03
      6.419  0.0000E+00  0.6620E+03
