       N       E                     dE             d eps       ncg     rms          rms(c)
DAV:   1     0.372012046893E+04    0.37201E+04   -0.21290E+05  4786   0.115E+03
DAV:   2    -0.143190434833E+03   -0.38633E+04   -0.36701E+04  5812   0.284E+02
DAV:   3    -0.557495669544E+03   -0.41431E+03   -0.40073E+03  5276   0.975E+01
DAV:   4    -0.571292113221E+03   -0.13796E+02   -0.13615E+02  5812   0.181E+01
DAV:   5    -0.571771631698E+03   -0.47952E+00   -0.45768E+00  6308   0.285E+00    0.691E+01
DAV:   6    -0.572223840916E+03   -0.45221E+00   -0.31682E+02  5412   0.291E+01    0.813E+01
DAV:   7    -0.100815825962E+04   -0.43593E+03   -0.35777E+03  8136   0.693E+01    0.101E+02
DAV:   8    -0.612355979227E+03    0.39580E+03   -0.13047E+04  7692   0.125E+02    0.116E+02
DAV:   9    -0.786378094881E+03   -0.17402E+03   -0.15617E+03  5196   0.500E+01    0.122E+02
DAV:  10    -0.694564783054E+03    0.91813E+02   -0.19921E+02  5916   0.178E+01    0.966E+01
DAV:  11    -0.660100195380E+03    0.34465E+02   -0.68560E+01  5700   0.156E+01    0.861E+01
DAV:  12    -0.610065261498E+03    0.50035E+02   -0.83996E+01  5404   0.103E+01    0.688E+01
DAV:  13    -0.599118232605E+03    0.10947E+02   -0.77081E+01  5596   0.271E+01    0.748E+01
DAV:  14    -0.563034021978E+03    0.36084E+02   -0.11723E+02  5300   0.114E+01    0.490E+01
DAV:  15    -0.556980378572E+03    0.60536E+01   -0.12813E+01  5284   0.988E+00    0.460E+01
DAV:  16    -0.558609228258E+03   -0.16288E+01   -0.82476E+00  5348   0.986E+00    0.466E+01
DAV:  17    -0.556394703458E+03    0.22145E+01   -0.10017E+01  5324   0.948E+00    0.460E+01
DAV:  18    -0.559272273092E+03   -0.28776E+01   -0.16465E+01  5764   0.611E+00    0.468E+01
DAV:  19    -0.558776155829E+03    0.49612E+00   -0.24717E+00  5780   0.184E+00    0.469E+01
DAV:  20    -0.558335251595E+03    0.44090E+00   -0.21951E-01  5748   0.887E-01    0.468E+01
DAV:  21    -0.557805628489E+03    0.52962E+00   -0.26254E-01  5516   0.128E+00    0.467E+01
DAV:  22    -0.557915604439E+03   -0.10998E+00   -0.16341E+00  5932   0.199E+00    0.471E+01
DAV:  23    -0.558211588199E+03   -0.29598E+00   -0.14983E-01  5644   0.664E-01    0.472E+01
DAV:  24    -0.558298420801E+03   -0.86833E-01   -0.97187E-03  5836   0.154E-01    0.472E+01
DAV:  25    -0.560774899666E+03   -0.24765E+01   -0.51153E-01  5652   0.173E+00    0.481E+01
DAV:  26    -0.562040705966E+03   -0.12658E+01   -0.86757E-01  5660   0.208E+00    0.488E+01
DAV:  27    -0.567834851741E+03   -0.57941E+01   -0.33865E+00  5940   0.265E+00    0.507E+01
DAV:  28    -0.575336994629E+03   -0.75021E+01   -0.23536E+00  6116   0.221E+00    0.529E+01
DAV:  29    -0.573619757836E+03    0.17172E+01   -0.85153E-01  5396   0.122E+00    0.530E+01
DAV:  30    -0.573265111637E+03    0.35465E+00   -0.72307E-02  5780   0.357E-01    0.530E+01
DAV:  31    -0.577845497136E+03   -0.45804E+01   -0.15491E+00  5836   0.138E+00    0.533E+01
DAV:  32    -0.577514271347E+03    0.33123E+00   -0.20830E-01  5540   0.646E-01    0.530E+01
DAV:  33    -0.583221546092E+03   -0.57073E+01   -0.39616E+00  5804   0.221E+00    0.560E+01
DAV:  34    -0.599680848948E+03   -0.16459E+02   -0.65919E+00  6172   0.248E+00    0.592E+01
DAV:  35    -0.600862867539E+03   -0.11820E+01   -0.11965E+00  5964   0.116E+00    0.596E+01
DAV:  36    -0.600918938586E+03   -0.56071E-01   -0.31502E-01  6308   0.115E+00    0.598E+01
DAV:  37    -0.595913903027E+03    0.50050E+01   -0.16120E+00  6140   0.974E-01    0.594E+01
DAV:  38    -0.593460122149E+03    0.24538E+01   -0.77257E-01  6116   0.102E+00    0.598E+01
DAV:  39    -0.599842992649E+03   -0.63829E+01   -0.15214E+00  6076   0.133E+00    0.622E+01
DAV:  40    -0.607099373474E+03   -0.72564E+01   -0.17278E+00  6140   0.117E+00    0.646E+01
DAV:  41    -0.622521469991E+03   -0.15422E+02   -0.65287E+00  5924   0.199E+00    0.689E+01
DAV:  42    -0.619928512830E+03    0.25930E+01   -0.31098E+00  6444   0.247E+00    0.676E+01
DAV:  43    -0.626464095734E+03   -0.65356E+01   -0.27098E+00  6036   0.139E+00    0.680E+01
DAV:  44    -0.624769212539E+03    0.16949E+01   -0.27745E-01  5673   0.418E-01    0.676E+01
DAV:  45    -0.624757187833E+03    0.12025E-01   -0.19543E-02  6404   0.104E-01    0.676E+01
DAV:  46    -0.618504497278E+03    0.62527E+01   -0.15730E+00  5937   0.649E-01    0.665E+01
DAV:  47    -0.638091315782E+03   -0.19587E+02   -0.64836E+00  5988   0.161E+00    0.706E+01
DAV:  48    -0.628596376046E+03    0.94949E+01   -0.12974E+01  5580   0.219E+00    0.691E+01
DAV:  49    -0.622654263293E+03    0.59421E+01   -0.31454E+00  5604   0.102E+00    0.686E+01
DAV:  50    -0.622739794398E+03   -0.85531E-01   -0.13451E-01  5892   0.279E-01    0.687E+01
DAV:  51    -0.598957096249E+03    0.23783E+02   -0.98104E+02  5437   0.298E+01    0.339E+01
DAV:  52    -0.566931455587E+03    0.32026E+02   -0.77939E+01  4889   0.126E+01    0.164E+01
DAV:  53    -0.574655569758E+03   -0.77241E+01   -0.94675E+00  5572   0.544E+00    0.203E+01
DAV:  54    -0.573153406110E+03    0.15022E+01   -0.30672E+00  5788   0.362E+00    0.199E+01
DAV:  55    -0.561906952793E+03    0.11246E+02   -0.44157E+00  5252   0.364E+00    0.140E+01
DAV:  56    -0.565967958718E+03   -0.40610E+01   -0.41732E+00  5276   0.437E+00    0.185E+01
DAV:  57    -0.557540566609E+03    0.84274E+01   -0.45620E+00  5004   0.328E+00    0.147E+01
DAV:  58    -0.555274081963E+03    0.22665E+01   -0.78111E-01  5388   0.190E+00    0.139E+01
DAV:  59    -0.551562081021E+03    0.37120E+01   -0.53202E-01  5364   0.135E+00    0.129E+01
DAV:  60    -0.547635691163E+03    0.39264E+01   -0.10939E+00  5628   0.107E+00    0.113E+01
DAV:  61    -0.544880725331E+03    0.27550E+01   -0.15931E+00  5260   0.121E+00    0.986E+00
DAV:  62    -0.544379894178E+03    0.50083E+00   -0.10500E-01  5436   0.556E-01    0.957E+00
DAV:  63    -0.540020209144E+03    0.43597E+01   -0.11078E+00  4980   0.124E+00    0.832E+00
DAV:  64    -0.536983614903E+03    0.30366E+01   -0.57442E-01  5276   0.127E+00    0.694E+00
DAV:  65    -0.535038014238E+03    0.19456E+01   -0.18349E-01  5468   0.929E-01    0.654E+00
DAV:  66    -0.531237893187E+03    0.38001E+01   -0.22151E+00  5068   0.163E+00    0.573E+00
DAV:  67    -0.529218044986E+03    0.20198E+01   -0.29929E-01  5188   0.967E-01    0.521E+00
DAV:  68    -0.527892247815E+03    0.13258E+01   -0.18265E-01  5132   0.799E-01    0.473E+00
DAV:  69    -0.526392924717E+03    0.14993E+01   -0.29432E-01  5316   0.991E-01    0.411E+00
DAV:  70    -0.525495251025E+03    0.89767E+00   -0.52292E-01  5484   0.106E+00    0.332E+00
DAV:  71    -0.525188092441E+03    0.30716E+00   -0.27435E-01  5236   0.111E+00    0.251E+00
DAV:  72    -0.524862039563E+03    0.32605E+00   -0.19584E-01  5396   0.955E-01    0.222E+00
DAV:  73    -0.524700130599E+03    0.16191E+00   -0.31955E-01  5644   0.109E+00    0.500E+00
DAV:  74    -0.524640036948E+03    0.60094E-01   -0.68668E-01  5420   0.648E-01    0.215E+00
DAV:  75    -0.528016657774E+03   -0.33766E+01   -0.18400E+00  5396   0.977E-01    0.782E+00
DAV:  76    -0.525407850190E+03    0.26088E+01   -0.26967E+00  5196   0.787E-01    0.741E+00
DAV:  77    -0.525782181977E+03   -0.37433E+00   -0.39505E-01  5084   0.657E-01    0.826E+00
DAV:  78    -0.524821294696E+03    0.96089E+00   -0.23547E+00  5572   0.743E-01    0.543E+00
DAV:  79    -0.524746999186E+03    0.74296E-01   -0.11291E+00  5452   0.775E-01    0.192E+00
DAV:  80    -0.524834795107E+03   -0.87796E-01   -0.63570E-02  5100   0.528E-01    0.189E+00
DAV:  81    -0.524886222412E+03   -0.51427E-01   -0.42153E-02  5132   0.540E-01    0.215E+00
DAV:  82    -0.524900352200E+03   -0.14130E-01   -0.14373E-02  5108   0.352E-01    0.202E+00
DAV:  83    -0.524958061732E+03   -0.57710E-01   -0.86043E-03  5124   0.238E-01    0.208E+00
DAV:  84    -0.525094987635E+03   -0.13693E+00   -0.11665E-02  5388   0.293E-01    0.213E+00
DAV:  85    -0.525238428236E+03   -0.14344E+00   -0.62081E-03  5460   0.166E-01    0.222E+00
DAV:  86    -0.525073393477E+03    0.16503E+00   -0.27381E-01  5072   0.120E+00    0.237E+00
DAV:  87    -0.525131645257E+03   -0.58252E-01   -0.81383E-02  5140   0.560E-01    0.221E+00
DAV:  88    -0.525011279847E+03    0.12037E+00   -0.30363E-02  4924   0.435E-01    0.201E+00
DAV:  89    -0.524885039606E+03    0.12624E+00   -0.42183E-02  5156   0.488E-01    0.178E+00
DAV:  90    -0.524807522550E+03    0.77517E-01   -0.44825E-02  5684   0.373E-01    0.157E+00
DAV:  91    -0.524603833786E+03    0.20369E+00   -0.16049E-01  5500   0.114E+00    0.132E+00
DAV:  92    -0.524587003870E+03    0.16830E-01   -0.40125E-02  5180   0.435E-01    0.106E+00
DAV:  93    -0.524545170598E+03    0.41833E-01   -0.79590E-03  5932   0.346E-01    0.950E-01
DAV:  94    -0.524501506359E+03    0.43664E-01   -0.96303E-03  5516   0.348E-01    0.874E-01
DAV:  95    -0.524459205543E+03    0.42301E-01   -0.11658E-02  5540   0.396E-01    0.721E-01
DAV:  96    -0.524415957879E+03    0.43248E-01   -0.12842E-02  5708   0.422E-01    0.643E-01
DAV:  97    -0.524387108130E+03    0.28850E-01   -0.97896E-03  5396   0.287E-01    0.512E-01
DAV:  98    -0.524340526695E+03    0.46581E-01   -0.10183E-02  6740   0.439E-01    0.403E-01
DAV:  99    -0.524295329744E+03    0.45197E-01   -0.19727E-02  5852   0.534E-01    0.329E-01
DAV: 100    -0.524258764730E+03    0.36565E-01   -0.22465E-02  5972   0.538E-01    0.305E-01
DAV: 101    -0.524213654193E+03    0.45111E-01   -0.40702E-02  6364   0.106E+00    0.429E-01
DAV: 102    -0.524208255703E+03    0.53985E-02   -0.31822E-02  5004   0.343E-01    0.470E-01
DAV: 103    -0.524204827761E+03    0.34279E-02   -0.34476E-03  5844   0.217E-01    0.469E-01
DAV: 104    -0.524202340351E+03    0.24874E-02   -0.15084E-03  5532   0.150E-01    0.465E-01
DAV: 105    -0.524196046892E+03    0.62935E-02   -0.14318E-03  6228   0.245E-01    0.422E-01
DAV: 106    -0.524189309896E+03    0.67370E-02   -0.23304E-03  5500   0.248E-01    0.387E-01
DAV: 107    -0.524186224626E+03    0.30853E-02   -0.19261E-03  5356   0.147E-01    0.383E-01
DAV: 108    -0.524183106095E+03    0.31185E-02   -0.11135E-03  5028   0.817E-02    0.353E-01
DAV: 109    -0.524177626619E+03    0.54795E-02   -0.67336E-04  6372   0.160E-01    0.324E-01
DAV: 110    -0.524173944174E+03    0.36824E-02   -0.78510E-04  5812   0.147E-01    0.310E-01
DAV: 111    -0.524170345360E+03    0.35988E-02   -0.92471E-04  5892   0.188E-01    0.311E-01
DAV: 112    -0.524168433748E+03    0.19116E-02   -0.97933E-04  5060   0.791E-02    0.285E-01
DAV: 113    -0.524166802137E+03    0.16316E-02   -0.32076E-04  5196   0.501E-02    0.269E-01
DAV: 114    -0.524165811051E+03    0.99109E-03   -0.90581E-05  5284   0.392E-02    0.262E-01
DAV: 115    -0.524164990379E+03    0.82067E-03   -0.78021E-05  5460   0.251E-02    0.257E-01
DAV: 116    -0.524161925714E+03    0.30647E-02   -0.27334E-04  6409   0.971E-02    0.232E-01
DAV: 117    -0.524161843634E+03    0.82080E-04   -0.18021E-04  5052   0.195E-02
   1 F= -.55387715E+03 E0= -.55368197E+03  d E =-.390369E+00
