 vasp.5.4.4.18Apr17-6-g9f103f2a35 (build Feb 25 2019 10:51:38) complex          
  
 executed on             LinuxIFC date 2019.09.01  10:06:57
 running on   16 total cores
 distrk:  each k-point on   16 cores,    1 groups
 distr:  one band on NCORES_PER_BAND=  16 cores,    1 groups


--------------------------------------------------------------------------------------------------------


 INCAR:
 POTCAR:    PAW_PBE H 15Jun2001                   
 POTCAR:    PAW_PBE O 08Apr2002                   
 POTCAR:    PAW_PBE Pt 04Feb2005                  

 ----------------------------------------------------------------------------- 
|                                                                             |
|           W    W    AA    RRRRR   N    N  II  N    N   GGGG   !!!           |
|           W    W   A  A   R    R  NN   N  II  NN   N  G    G  !!!           |
|           W    W  A    A  R    R  N N  N  II  N N  N  G       !!!           |
|           W WW W  AAAAAA  RRRRR   N  N N  II  N  N N  G  GGG   !            |
|           WW  WW  A    A  R   R   N   NN  II  N   NN  G    G                |
|           W    W  A    A  R    R  N    N  II  N    N   GGGG   !!!           |
|                                                                             |
|      For optimal performance we recommend to set                            |
|        NCORE= 4 - approx SQRT( number of cores)                             |
|      NCORE specifies how many cores store one orbital (NPAR=cpu/NCORE).     |
|      This setting can  greatly improve the performance of VASP for DFT.     |
|      The default,   NCORE=1            might be grossly inefficient         |
|      on modern multi-core architectures or massively parallel machines.     |
|      Do your own testing !!!!                                               |
|      Unfortunately you need to use the default for GW and RPA calculations. |
|      (for HF NCORE is supported but not extensively tested yet)             |
|                                                                             |
 ----------------------------------------------------------------------------- 

 POTCAR:    PAW_PBE H 15Jun2001                   
   VRHFIN =H: ultrasoft test                                                    
   LEXCH  = PE                                                                  
   EATOM  =    12.4884 eV,    0.9179 Ry                                         
                                                                                
   TITEL  = PAW_PBE H 15Jun2001                                                 
   LULTRA =        F    use ultrasoft PP ?                                      
   IUNSCR =        0    unscreen: 0-lin 1-nonlin 2-no                           
   RPACOR =    0.000    partial core radius                                     
   POMASS =    1.000; ZVAL   =    1.000    mass and valenz                      
   RCORE  =    1.100    outmost cutoff radius                                   
   RWIGS  =    0.700; RWIGS  =    0.370    wigner-seitz radius (au A)           
   ENMAX  =  250.000; ENMIN  =  200.000 eV                                      
   RCLOC  =    0.701    cutoff for local pot                                    
   LCOR   =        T    correct aug charges                                     
   LPAW   =        T    paw PP                                                  
   EAUG   =  400.000                                                            
   RMAX   =    1.123    core radius for proj-oper                               
   RAUG   =    1.200    factor for augmentation sphere                          
   RDEP   =    1.112    radius for radial grids                                 
   RDEPT  =    0.926    core radius for aug-charge                              
                                                                                
   Atomic configuration                                                         
    2 entries                                                                   
     n  l   j            E        occ.                                          
     1  0  0.50        -6.4927   1.0000                                         
     2  1  0.50        -3.4015   0.0000                                         
   Description                                                                  
     l       E           TYP  RCUT    TYP  RCUT                                 
     0     -6.4927494     23  1.100                                             
     0      6.8029130     23  1.100                                             
     1     -4.0817478     23  1.100                                             
  local pseudopotential read in
  atomic valenz-charges read in
  non local Contribution for L=           0  read in
    real space projection operators read in
  non local Contribution for L=           0  read in
    real space projection operators read in
  non local Contribution for L=           1  read in
    real space projection operators read in
    PAW grid and wavefunctions read in
 
   number of l-projection  operators is LMAX  =           3
   number of lm-projection operators is LMMAX =           5
 
 POTCAR:    PAW_PBE O 08Apr2002                   
   VRHFIN =O: s2p4                                                              
   LEXCH  = PE                                                                  
   EATOM  =   432.3788 eV,   31.7789 Ry                                         
                                                                                
   TITEL  = PAW_PBE O 08Apr2002                                                 
   LULTRA =        F    use ultrasoft PP ?                                      
   IUNSCR =        1    unscreen: 0-lin 1-nonlin 2-no                           
   RPACOR =    1.200    partial core radius                                     
   POMASS =   16.000; ZVAL   =    6.000    mass and valenz                      
   RCORE  =    1.520    outmost cutoff radius                                   
   RWIGS  =    1.550; RWIGS  =    0.820    wigner-seitz radius (au A)           
   ENMAX  =  400.000; ENMIN  =  300.000 eV                                      
   ICORE  =        2    local potential                                         
   LCOR   =        T    correct aug charges                                     
   LPAW   =        T    paw PP                                                  
   EAUG   =  605.392                                                            
   DEXC   =    0.000                                                            
   RMAX   =    1.553    core radius for proj-oper                               
   RAUG   =    1.300    factor for augmentation sphere                          
   RDEP   =    1.550    radius for radial grids                                 
   RDEPT  =    1.329    core radius for aug-charge                              
                                                                                
   Atomic configuration                                                         
    4 entries                                                                   
     n  l   j            E        occ.                                          
     1  0  0.50      -514.6923   2.0000                                         
     2  0  0.50       -23.9615   2.0000                                         
     2  1  0.50        -9.0305   4.0000                                         
     3  2  1.50        -9.5241   0.0000                                         
   Description                                                                  
     l       E           TYP  RCUT    TYP  RCUT                                 
     0    -23.9615318     23  1.200                                             
     0     -9.5240782     23  1.200                                             
     1     -9.0304911     23  1.520                                             
     1      8.1634956     23  1.520                                             
     2     -9.5240782      7  1.500                                             
  local pseudopotential read in
  partial core-charges read in
  partial kinetic energy density read in
  kinetic energy density of atom read in
  atomic valenz-charges read in
  non local Contribution for L=           0  read in
    real space projection operators read in
  non local Contribution for L=           0  read in
    real space projection operators read in
  non local Contribution for L=           1  read in
    real space projection operators read in
  non local Contribution for L=           1  read in
    real space projection operators read in
    PAW grid and wavefunctions read in
 
   number of l-projection  operators is LMAX  =           4
   number of lm-projection operators is LMMAX =           8
 
 POTCAR:    PAW_PBE Pt 04Feb2005                  
   VRHFIN =Pt: s1d9                                                             
   LEXCH  = PE                                                                  
   EATOM  =   729.1176 eV,   53.5886 Ry                                         
                                                                                
   TITEL  = PAW_PBE Pt 04Feb2005                                                
   LULTRA =        F    use ultrasoft PP ?                                      
   IUNSCR =        1    unscreen: 0-lin 1-nonlin 2-no                           
   RPACOR =    2.330    partial core radius                                     
   POMASS =  195.080; ZVAL   =   10.000    mass and valenz                      
   RCORE  =    2.600    outmost cutoff radius                                   
   RWIGS  =    2.750; RWIGS  =    1.455    wigner-seitz radius (au A)           
   ENMAX  =  230.283; ENMIN  =  172.712 eV                                      
   ICORE  =        3    local potential                                         
   LCOR   =        T    correct aug charges                                     
   LPAW   =        T    paw PP                                                  
   EAUG   =  358.966                                                            
   DEXC   =    0.000                                                            
   RMAX   =    2.658    core radius for proj-oper                               
   RAUG   =    1.300    factor for augmentation sphere                          
   RDEP   =    2.761    radius for radial grids                                 
   RDEPT  =    2.203    core radius for aug-charge                              
                                                                                
   Atomic configuration                                                         
   16 entries                                                                   
     n  l   j            E        occ.                                          
     1  0  0.50    -78401.1885   2.0000                                         
     2  0  0.50    -13770.7750   2.0000                                         
     2  1  1.50    -11931.0468   6.0000                                         
     3  0  0.50     -3234.7234   2.0000                                         
     3  1  1.50     -2699.2216   6.0000                                         
     3  2  2.50     -2119.5714  10.0000                                         
     4  0  0.50      -695.1528   2.0000                                         
     4  1  1.50      -519.6034   6.0000                                         
     4  2  2.50      -306.6786  10.0000                                         
     4  3  3.50       -70.1041  14.0000                                         
     5  0  0.50      -101.7747   2.0000                                         
     5  1  1.50       -55.9873   6.0000                                         
     5  2  2.50        -6.1423   9.0000                                         
     6  0  0.50        -5.6573   1.0000                                         
     6  1  1.50        -6.8029   0.0000                                         
     5  3  2.50        -1.3606   0.0000                                         
   Description                                                                  
     l       E           TYP  RCUT    TYP  RCUT                                 
     2     -6.1423404     23  2.500                                             
     2     -7.5029230     23  2.500                                             
     0     -5.6573207     23  2.500                                             
     0      0.7416693     23  2.500                                             
     1     -2.7211652     23  2.600                                             
     1     20.4087390     23  2.600                                             
     3     -1.3605826     23  2.500                                             
  local pseudopotential read in
  partial core-charges read in
  partial kinetic energy density read in
  atomic valenz-charges read in
  non local Contribution for L=           2  read in
    real space projection operators read in
  non local Contribution for L=           2  read in
    real space projection operators read in
  non local Contribution for L=           0  read in
    real space projection operators read in
  non local Contribution for L=           0  read in
    real space projection operators read in
  non local Contribution for L=           1  read in
    real space projection operators read in
  non local Contribution for L=           1  read in
    real space projection operators read in
    PAW grid and wavefunctions read in
 
   number of l-projection  operators is LMAX  =           6
   number of lm-projection operators is LMMAX =          18
 
 Optimization of the real space projectors (new method)

 maximal supplied QI-value         = 34.20
 optimisation between [QCUT,QGAM] = [  9.92, 20.18] = [ 27.55,114.04] Ry 
 Optimized for a Real-space Cutoff    1.26 Angstroem

   l    n(q)    QCUT    max X(q) W(low)/X(q) W(high)/X(q)  e(spline) 
   0      8     9.919    19.460    0.50E-03    0.23E-03    0.29E-06
   0      8     9.919    12.209    0.48E-03    0.23E-03    0.28E-06
   1      7     9.919     4.655    0.17E-03    0.75E-03    0.30E-06
 Optimization of the real space projectors (new method)

 maximal supplied QI-value         = 24.76
 optimisation between [QCUT,QGAM] = [ 10.15, 20.30] = [ 28.85,115.39] Ry 
 Optimized for a Real-space Cutoff    1.38 Angstroem

   l    n(q)    QCUT    max X(q) W(low)/X(q) W(high)/X(q)  e(spline) 
   0      8    10.150    20.381    0.22E-03    0.32E-03    0.29E-06
   0      8    10.150    15.268    0.23E-03    0.35E-03    0.30E-06
   1      8    10.150     5.964    0.46E-03    0.53E-03    0.21E-06
   1      8    10.150     5.382    0.38E-03    0.45E-03    0.19E-06
 Optimization of the real space projectors (new method)

 maximal supplied QI-value         = 14.36
 optimisation between [QCUT,QGAM] = [ 10.20, 20.39] = [ 29.12,116.47] Ry 
 Optimized for a Real-space Cutoff    1.51 Angstroem

   l    n(q)    QCUT    max X(q) W(low)/X(q) W(high)/X(q)  e(spline) 
   2      8    10.197    66.195    0.45E-03    0.45E-03    0.14E-06
   2      8    10.197    64.643    0.46E-03    0.46E-03    0.14E-06
   0      9    10.197    95.520    0.15E-03    0.11E-03    0.54E-07
   0      9    10.197    63.403    0.15E-03    0.11E-03    0.52E-07
   1      9    10.197    19.961    0.13E-03    0.17E-03    0.77E-07
   1      9    10.197    13.289    0.10E-03    0.15E-03    0.67E-07

 ----------------------------------------------------------------------------- 
|                                                                             |
|  ADVICE TO THIS USER RUNNING 'VASP/VAMP'   (HEAR YOUR MASTER'S VOICE ...):  |
|                                                                             |
|      You enforced a specific xc-type in the INCAR file,                     |
|      a different type was found on the POTCAR file                          |
|          I HOPE YOU KNOW, WHAT YOU ARE  DOING                               |
|                                                                             |
 ----------------------------------------------------------------------------- 

  PAW_PBE H 15Jun2001                   :
 energy of atom  1       EATOM=  -12.4884
 kinetic energy error for atom=    0.0098 (will be added to EATOM!!)
  PAW_PBE O 08Apr2002                   :
 energy of atom  2       EATOM= -432.3788
 kinetic energy error for atom=    0.1156 (will be added to EATOM!!)
  PAW_PBE Pt 04Feb2005                  :
 energy of atom  3       EATOM= -729.1176
 kinetic energy error for atom=    0.0056 (will be added to EATOM!!)
 
 
 POSCAR:  H  O Pt                                
  positions in cartesian coordinates
  No initial velocities read in
 exchange correlation table for  LEXCH =        9
   RHO(1)=    0.500       N(1)  =     2000
   RHO(2)=  100.500       N(2)  =     4000

 VTST: version 3.2, (02/03/18)

 CHAIN: initializing optimizer
 
 OPT: Using VASP Dynamics algorithm
 CHAIN: Read ICHAIN            0
 
 POSCAR:  H  O Pt                                
  positions in cartesian coordinates
  No initial velocities read in
 


--------------------------------------------------------------------------------------------------------


 ion  position               nearest neighbor table
   1  0.987  0.109  0.481-  52 0.98
   2  0.842  0.700  0.491-  49 1.02
   3  0.560  0.623  0.439-  50 0.98
   4  0.775  0.004  0.440-  62 1.00
   5  0.393  0.063  0.461-  63 1.00
   6  0.399  0.228  0.456-  63 1.01
   7  0.211  0.202  0.627-  56 0.97
   8  0.972  0.942  0.479-  52 0.94
   9  0.626  0.107  0.566-  57 0.98
  10  0.762  0.625  0.527-  49 1.00
  11  0.205  0.433  0.526-  55 1.00
  12  0.840  0.331  0.497-  54 0.97
  13  0.558  0.128  0.519-  57 0.98
  14  0.608  0.896  0.637-  67 0.99
  15  0.947  0.715  0.648-  66 1.00
  16  0.059  0.200  0.655-  56 0.97
  17  0.516  0.081  0.746-  53 0.99
  18  0.354  0.094  0.723-  53 1.01
  19  0.503  0.535  0.651-  58 0.95
  20  0.566  0.319  0.714-  45 0.75
  21  0.176  0.554  0.646-  71 0.96
  22  0.026  0.882  0.743-  59 0.99
  23  0.734  0.155  0.638-  60 0.96
  24  0.775  0.306  0.636-  60 0.95
  25  0.028  0.660  0.431-  64 0.99
  26  0.318  0.865  0.497-  61 0.99
  27  0.601  0.045  0.441-  62 1.00
  28  0.593  0.640  0.482-  50 1.01
  29  0.223  0.406  0.438-  51 0.98
  30  0.350  0.485  0.462-  51 1.02
  31  0.444  0.505  0.566-  68 0.98
  32  0.099  0.766  0.462-  64 1.01
  33  0.226  0.779  0.566-  69 0.98
  34  0.377  0.794  0.458-  61 1.01
  35  0.511  0.890  0.599-  67 0.97
  36  0.816  0.733  0.614-  66 0.96
  37  0.185  0.929  0.572-  69 0.97
  38  0.058  0.469  0.553-  55 1.00
  39  0.795  0.227  0.532-  54 1.04
  40  0.548  0.373  0.556-  68 0.98
  41  0.981  0.605  0.709-  65 1.00
  42  0.795  0.573  0.694-  65 1.00
  43  0.945  0.902  0.677-  70 0.96
  44  0.614  0.479  0.617-  58 1.03
  45  0.565  0.328  0.737-  20 0.75
  46  0.197  0.433  0.675-  71 1.02
  47  0.520  0.913  0.699-  72 1.00
  48  0.612  0.762  0.705-  72 1.00
  49  0.736  0.699  0.507-  10 1.00   2 1.02
  50  0.497  0.619  0.465-   3 0.98  28 1.01
  51  0.274  0.403  0.465-  29 0.98  30 1.02
  52  0.933  0.027  0.470-   8 0.94   1 0.98
  53  0.471  0.069  0.718-  17 0.99  18 1.01
  54  0.892  0.267  0.516-  12 0.97  39 1.04
  55  0.175  0.488  0.550-  38 1.00  11 1.00
  56  0.173  0.220  0.655-   7 0.97  16 0.97
  57  0.603  0.173  0.544-  13 0.98   9 0.98
  58  0.614  0.532  0.644-  19 0.95  44 1.03
  59  0.059  0.956  0.724-  22 0.99  70 1.53
  60  0.817  0.217  0.629-  24 0.95  23 0.96
  61  0.328  0.885  0.467-  26 0.99  34 1.01
  62  0.671  0.973  0.428-  27 1.00   4 1.00  99 2.19
  63  0.467  0.144  0.462-   5 1.00   6 1.01
  64  0.003  0.705  0.457-  25 0.99  32 1.01
  65  0.883  0.644  0.695-  41 1.00  42 1.00
  66  0.930  0.737  0.618-  36 0.96  15 1.00
  67  0.589  0.952  0.612-  35 0.97  14 0.99
  68  0.554  0.468  0.567-  40 0.98  31 0.98
  69  0.263  0.871  0.559-  37 0.97  33 0.98
  70  0.908  0.966  0.697-  43 0.96  59 1.53
  71  0.208  0.538  0.674-  21 0.96  46 1.02
  72  0.541  0.819  0.687-  48 1.00  47 1.00
  73  0.167  0.083  0.219-  74 2.78  77 2.78  83 2.78  82 2.78  76 2.78  75 2.78  94 2.78  86 2.78
                            85 2.78
  74  0.500  0.083  0.219-  73 2.78  75 2.78  77 2.78  78 2.78  83 2.78  84 2.78  95 2.78  87 2.78
                            86 2.78
  75  0.833  0.083  0.219-  74 2.78  78 2.78  84 2.78  82 2.78  76 2.78  73 2.78  96 2.78  87 2.78
                            85 2.78
  76  0.000  0.333  0.219-  77 2.78  78 2.78  73 2.78  75 2.78  79 2.78  81 2.78  85 2.78  88 2.78
                            90 2.78
  77  0.333  0.333  0.219-  76 2.78  73 2.78  79 2.78  74 2.78  80 2.78  78 2.78  86 2.78  88 2.78
                            89 2.78
  78  0.667  0.333  0.219-  76 2.78  75 2.78  81 2.78  80 2.78  74 2.78  77 2.78  87 2.78  90 2.78
                            89 2.78
  79  0.167  0.583  0.219-  80 2.78  77 2.78  83 2.78  82 2.78  76 2.78  81 2.78  88 2.78  92 2.78
                            91 2.78
  80  0.500  0.583  0.219-  79 2.78  81 2.78  77 2.78  78 2.78  83 2.78  84 2.78  89 2.78  92 2.78
                            93 2.78
  81  0.833  0.583  0.219-  80 2.78  78 2.78  84 2.78  82 2.78  76 2.78  79 2.78  90 2.78  93 2.78
                            91 2.78
  82  0.000  0.833  0.219-  83 2.78  84 2.78  79 2.78  81 2.78  73 2.78  75 2.78  91 2.78  94 2.78
                            96 2.78
  83  0.333  0.833  0.219-  82 2.78  79 2.78  73 2.78  80 2.78  74 2.78  84 2.78  92 2.78  94 2.78
                            95 2.78
  84  0.667  0.833  0.219-  82 2.78  81 2.78  75 2.78  74 2.78  80 2.78  83 2.78  93 2.78  96 2.78
                            95 2.78
  85  0.000  0.167  0.289-  86 2.78  87 2.78  88 2.78  90 2.78  94 2.78  96 2.78  76 2.78  75 2.78
                            73 2.78 102 2.85 100 2.85  97 2.88
  86  0.333  0.167  0.289-  98 2.74  85 2.78  94 2.78  88 2.78  95 2.78  89 2.78  87 2.78  77 2.78
                            73 2.78  74 2.78 101 2.81 100 2.90
  87  0.667  0.167  0.289-  85 2.78  90 2.78  96 2.78  95 2.78  89 2.78  86 2.78  78 2.78  75 2.78
                            74 2.78 101 2.81  99 2.82 102 2.84
  88  0.167  0.417  0.289-  89 2.78  86 2.78  92 2.78  91 2.78  85 2.78  90 2.78  79 2.78  77 2.78
                            76 2.78 100 2.79 104 2.89 103 2.89
  89  0.500  0.417  0.289- 101 2.77  90 2.78  88 2.78  87 2.78  92 2.78  93 2.78  86 2.78  80 2.78
                            77 2.78  78 2.78 104 2.87 105 2.92
  90  0.833  0.417  0.289-  89 2.78  87 2.78  93 2.78  91 2.78  85 2.78  88 2.78  81 2.78  78 2.78
                            76 2.78 102 2.79 103 2.91 105 2.97
  91  0.000  0.667  0.289-  92 2.78  93 2.78  88 2.78  90 2.78  94 2.78  96 2.78  82 2.78  81 2.78
                            79 2.78 106 2.82 103 2.83 108 2.95
  92  0.333  0.667  0.289- 107 2.76  91 2.78  94 2.78  88 2.78  95 2.78  89 2.78  93 2.78  83 2.78
                            79 2.78  80 2.78 104 2.80 106 2.84
  93  0.667  0.667  0.289- 107 2.75  91 2.78  96 2.78  90 2.78  89 2.78  95 2.78  92 2.78  84 2.78
                            81 2.78  80 2.78 105 2.90 108 2.95
  94  0.167  0.917  0.289- 106 2.77  95 2.78  86 2.78  92 2.78  91 2.78  85 2.78  96 2.78  73 2.78
                            83 2.78  82 2.78  98 2.78  97 2.97
  95  0.500  0.917  0.289- 107 2.74  96 2.78  94 2.78  93 2.78  86 2.78  87 2.78  92 2.78  74 2.78
                            84 2.78  83 2.78  98 2.79  99 2.87
  96  0.833  0.917  0.289-  95 2.78  93 2.78  87 2.78  85 2.78  91 2.78  94 2.78  75 2.78  84 2.78
                            82 2.78  99 2.89 108 2.91  97 2.98
  97  0.001  0.012  0.365- 100 2.74 102 2.75  98 2.78 106 2.81  99 2.82 108 2.84  85 2.88  94 2.97
                            96 2.98
  98  0.333  0.006  0.358-  86 2.74  99 2.77 101 2.77  97 2.78  94 2.78 106 2.79  95 2.79 107 2.82
                           100 2.85
  99  0.664  0.007  0.362-  62 2.19 101 2.76  98 2.77 102 2.78 108 2.81 107 2.81  97 2.82  87 2.82
                            95 2.87  96 2.89
 100  0.160  0.260  0.361- 102 2.73 103 2.74  97 2.74  88 2.79 104 2.82 101 2.83  98 2.85  85 2.85
                            86 2.90
 101  0.499  0.255  0.359-  99 2.76 105 2.77  89 2.77  98 2.77 102 2.78 104 2.81  86 2.81  87 2.81
                           100 2.83
 102  0.833  0.256  0.360- 100 2.73  97 2.75  99 2.78 101 2.78  90 2.79 105 2.81 103 2.82  87 2.84
                            85 2.85
 103  0.002  0.509  0.362- 100 2.74 106 2.74 108 2.76 104 2.79 102 2.82  91 2.83 105 2.85  88 2.89
                            90 2.91
 104  0.336  0.510  0.361- 105 2.70 107 2.71 106 2.78 103 2.79  92 2.80 101 2.81 100 2.82  89 2.87
                            88 2.89
 105  0.660  0.506  0.364- 104 2.70 107 2.73 101 2.77 102 2.81 108 2.81 103 2.85  93 2.90  89 2.92
                            90 2.97
 106  0.164  0.757  0.360- 103 2.74 108 2.76  94 2.77 104 2.78  98 2.79  97 2.81  91 2.82 107 2.82
                            92 2.84
 107  0.501  0.752  0.358- 104 2.71 105 2.73  95 2.74  93 2.75  92 2.76 108 2.78  99 2.81 106 2.82
                            98 2.82
 108  0.834  0.755  0.364- 103 2.76 106 2.76 107 2.78 105 2.81  99 2.81  97 2.84  96 2.91  91 2.95
                            93 2.95
 
  LATTYP: Found a simple orthorhombic cell.
 ALAT       =     8.3458886400
 B/A-ratio  =     1.1547005389
 C/A-ratio  =     3.8992763699
  
  Lattice vectors:
  
 A1 = (   8.3458886400,   0.0000000000,   0.0000000000)
 A2 = (   0.0000000000,   9.6370021100,   0.0000000000)
 A3 = (   0.0000000000,   0.0000000000,  32.5429263600)


Analysis of symmetry for initial positions (statically):
=====================================================================
 Subroutine PRICEL returns:
 Original cell was already a primitive cell.
 

 Routine SETGRP: Setting up the symmetry group for a 
 simple orthorhombic supercell.


 Subroutine GETGRP returns: Found  1 space group operations
 (whereof  1 operations were pure point group operations)
 out of a pool of  8 trial point group operations.


The static configuration has the point symmetry C_1 .


Analysis of symmetry for dynamics (positions and initial velocities):
=====================================================================
 Subroutine PRICEL returns:
 Original cell was already a primitive cell.
 

 Routine SETGRP: Setting up the symmetry group for a 
 simple orthorhombic supercell.


 Subroutine GETGRP returns: Found  1 space group operations
 (whereof  1 operations were pure point group operations)
 out of a pool of  8 trial point group operations.


The dynamic configuration has the point symmetry C_1 .


Analysis of constrained symmetry for selective dynamics:
=====================================================================
 Subroutine PRICEL returns:
 Original cell was already a primitive cell.
 

 Routine SETGRP: Setting up the symmetry group for a 
 simple orthorhombic supercell.


 Subroutine GETGRP returns: Found  1 space group operations
 (whereof  1 operations were pure point group operations)
 out of a pool of  8 trial point group operations.


The constrained configuration has the point symmetry C_1 .


 Subroutine INISYM returns: Found  1 space group operations
 (whereof  1 operations are pure point group operations),
 and found     1 'primitive' translations

 
 
 KPOINTS: automatic                               

Automatic generation of k-mesh.
Space group operators:
 irot       det(A)        alpha          n_x          n_y          n_z        tau_x        tau_y        tau_z
    1     1.000000     0.000001     1.000000     0.000000     0.000000     0.000000     0.000000     0.000000
 
 Subroutine IBZKPT returns following result:
 ===========================================
 
 Found      7 irreducible k-points:
 
 Following reciprocal coordinates:
            Coordinates               Weight
  0.000000  0.000000  0.000000      1.000000
  0.250000  0.000000  0.000000      2.000000
  0.500000  0.000000  0.000000      1.000000
  0.000000  0.333333  0.000000      2.000000
  0.250000  0.333333  0.000000      2.000000
  0.500000  0.333333  0.000000      2.000000
 -0.250000  0.333333  0.000000      2.000000
 
 Following cartesian coordinates:
            Coordinates               Weight
  0.000000  0.000000  0.000000      1.000000
  0.029955  0.000000  0.000000      2.000000
  0.059910  0.000000  0.000000      1.000000
  0.000000  0.034589  0.000000      2.000000
  0.029955  0.034589  0.000000      2.000000
  0.059910  0.034589  0.000000      2.000000
 -0.029955  0.034589  0.000000      2.000000
 


--------------------------------------------------------------------------------------------------------




 Dimension of arrays:
   k-points           NKPTS =      7   k-points in BZ     NKDIM =      7   number of bands    NBANDS=    331
   number of dos      NEDOS =    301   number of ions     NIONS =    108
   non local maximal  LDIM  =      6   non local SUM 2l+1 LMDIM =     18
   total plane-waves  NPLWV = 322560
   max r-space proj   IRMAX =   1822   max aug-charges    IRDMAX=   7663
   dimension x,y,z NGX =    42 NGY =   48 NGZ =  160
   dimension x,y,z NGXF=    84 NGYF=   96 NGZF=  320
   support grid    NGXF=    84 NGYF=   96 NGZF=  320
   ions per type =              48  24  36
   NGX,Y,Z   is equivalent  to a cutoff of   8.37,  8.28,  8.17 a.u.
   NGXF,Y,Z  is equivalent  to a cutoff of  16.73, 16.56, 16.35 a.u.

 SYSTEM =  CuH2O                                   
 POSCAR =   H  O Pt                                

 Startparameter for this run:
   NWRITE =      2    write-flag & timer
   PREC   = normal    normal or accurate (medium, high low for compatibility)
   ISTART =      0    job   : 0-new  1-cont  2-samecut
   ICHARG =      2    charge: 1-file 2-atom 10-const
   ISPIN  =      1    spin polarized calculation?
   LNONCOLLINEAR =      F non collinear calculations
   LSORBIT =      F    spin-orbit coupling
   INIWAV =      1    electr: 0-lowe 1-rand  2-diag
   LASPH  =      F    aspherical Exc in radial PAW
   METAGGA=      F    non-selfconsistent MetaGGA calc.

 Electronic Relaxation 1
   ENCUT  =  400.0 eV  29.40 Ry    5.42 a.u.  13.61 15.72 53.07*2*pi/ulx,y,z
   ENINI  =  400.0     initial cutoff
   ENAUG  =  605.4 eV  augmentation charge cutoff
   NELM   =    200;   NELMIN=  2; NELMDL= -5     # of ELM steps 
   EDIFF  = 0.1E-03   stopping-criterion for ELM
   LREAL  =      T    real-space projection
   NLSPLINE    = F    spline interpolate recip. space projectors
   LCOMPAT=      F    compatible to vasp.4.4
   GGA_COMPAT  = T    GGA compatible to vasp.4.4-vasp.4.6
   LMAXPAW     = -100 max onsite density
   LMAXMIX     =    2 max onsite mixed and CHGCAR
   VOSKOWN=      0    Vosko Wilk Nusair interpolation
   ROPT   =   -0.00050  -0.00050  -0.00050
 Ionic relaxation
   EDIFFG = 0.0E+00   stopping-criterion for IOM
   NSW    =      0    number of steps for IOM
   NBLOCK =      1;   KBLOCK =      1    inner block; outer block 
   IBRION =     -1    ionic relax: 0-MD 1-quasi-New 2-CG
   NFREE  =      0    steps in history (QN), initial steepest desc. (CG)
   ISIF   =      2    stress and relaxation
   IWAVPR =     10    prediction:  0-non 1-charg 2-wave 3-comb
   ISYM   =      2    0-nonsym 1-usesym 2-fastsym
   LCORR  =      T    Harris-Foulkes like correction to forces

   POTIM  = 0.5000    time-step for ionic-motion
   TEIN   =    0.0    initial temperature
   TEBEG  =    0.0;   TEEND  =   0.0 temperature during run
   SMASS  =  -3.00    Nose mass-parameter (am)
   estimated Nose-frequenzy (Omega)   =  0.10E-29 period in steps =****** mass=  -0.159E-26a.u.
   SCALEE = 1.0000    scale energy and forces
   NPACO  =    256;   APACO  = 16.0  distance and # of slots for P.C.
   PSTRESS=    0.0 pullay stress

  Mass of Ions in am
   POMASS =   1.00 16.00195.08
  Ionic Valenz
   ZVAL   =   1.00  6.00 10.00
  Atomic Wigner-Seitz radii
   RWIGS  =  -1.00 -1.00 -1.00
  virtual crystal weights 
   VCA    =   1.00  1.00  1.00
   NELECT =     552.0000    total number of electrons
   NUPDOWN=      -1.0000    fix difference up-down

 DOS related values:
   EMIN   =  10.00;   EMAX   =-10.00  energy-range for DOS
   EFERMI =   0.00
   ISMEAR =     0;   SIGMA  =   0.10  broadening in eV -4-tet -1-fermi 0-gaus

 Electronic relaxation 2 (details)
   IALGO  =     38    algorithm
   LDIAG  =      T    sub-space diagonalisation (order eigenvalues)
   LSUBROT=      F    optimize rotation matrix (better conditioning)
   TURBO    =      0    0=normal 1=particle mesh
   IRESTART =      0    0=no restart 2=restart with 2 vectors
   NREBOOT  =      0    no. of reboots
   NMIN     =      0    reboot dimension
   EREF     =   0.00    reference energy to select bands
   IMIX   =      4    mixing-type and parameters
     AMIX     =   0.40;   BMIX     =  1.00
     AMIX_MAG =   1.60;   BMIX_MAG =  1.00
     AMIN     =   0.10
     WC   =   100.;   INIMIX=   1;  MIXPRE=   1;  MAXMIX= -45

 Intra band minimization:
   WEIMIN = 0.0000     energy-eigenvalue tresh-hold
   EBREAK =  0.00E+00  absolut break condition
   DEPER  =   0.30     relativ break condition  

   TIME   =   0.40     timestep for ELM

  volume/ion in A,a.u.               =      24.24       163.55
  Fermi-wavevector in a.u.,A,eV,Ry     =   0.974460  1.841463 12.919723  0.949573
  Thomas-Fermi vector in A             =   2.104922
 
 Write flags
   LWAVE        =      F    write WAVECAR
   LDOWNSAMPLE  =      F    k-point downsampling of WAVECAR
   LCHARG       =      F    write CHGCAR
   LVTOT        =      F    write LOCPOT, total local potential
   LVHAR        =      T    write LOCPOT, Hartree potential only
   LELF         =      F    write electronic localiz. function (ELF)
   LORBIT       =      0    0 simple, 1 ext, 2 COOP (PROOUT), +10 PAW based schemes


 Dipole corrections
   LMONO  =      F    monopole corrections only (constant potential shift)
   LDIPOL =      T    correct potential (dipole corrections)
   IDIPOL =      3    1-x, 2-y, 3-z, 4-all directions 
   EPSILON=  1.0000000 bulk dielectric constant

 Exchange correlation treatment:
   GGA     =    RP    GGA type
   LEXCH   =     9    internal setting for exchange type
   VOSKOWN=      0    Vosko Wilk Nusair interpolation
   LHFCALC =     F    Hartree Fock is set to
   LHFONE  =     F    Hartree Fock one center treatment
   AEXX    =    0.0000 exact exchange contribution

 Linear response parameters
   LEPSILON=     F    determine dielectric tensor
   LRPA    =     F    only Hartree local field effects (RPA)
   LNABLA  =     F    use nabla operator in PAW spheres
   LVEL    =     F    velocity operator in full k-point grid
   LINTERFAST=   F  fast interpolation
   KINTER  =     0    interpolate to denser k-point grid
   CSHIFT  =0.1000    complex shift for real part using Kramers Kronig
   OMEGAMAX=  -1.0    maximum frequency
   DEG_THRESHOLD= 0.2000000E-02 threshold for treating states as degnerate
   RTIME   =   -0.100 relaxation time in fs
  (WPLASMAI=    0.000 imaginary part of plasma frequency in eV, 0.658/RTIME)
   DFIELD  = 0.0000000 0.0000000 0.0000000 field for delta impulse in time
 
 Orbital magnetization related:
   ORBITALMAG=     F  switch on orbital magnetization
   LCHIMAG   =     F  perturbation theory with respect to B field
   DQ        =  0.001000  dq finite difference perturbation B field
   LLRAUG    =     F  two centre corrections for induced B field



--------------------------------------------------------------------------------------------------------


 Static calculation
 charge density and potential will be updated during run
 non-spin polarized calculation
 Variant of blocked Davidson
 Davidson routine will perform the subspace rotation
 perform sub-space diagonalisation
    after iterative eigenvector-optimisation
 modified Broyden-mixing scheme, WC =      100.0
 initial mixing is a Kerker type mixing with AMIX =  0.4000 and BMIX =      1.0000
 Hartree-type preconditioning will be used
 using additional bands           55
 real space projection scheme for non local part
 use partial core corrections
 calculate Harris-corrections to forces 
   (improved forces if not selfconsistent)
 use gradient corrections 
 use of overlap-Matrix (Vanderbilt PP)
 Gauss-broadening in eV      SIGMA  =   0.10


--------------------------------------------------------------------------------------------------------


  energy-cutoff  :      400.00
  volume of cell :     2617.41
      direct lattice vectors                 reciprocal lattice vectors
     8.345888640  0.000000000  0.000000000     0.119819476  0.000000000  0.000000000
     0.000000000  9.637002110  0.000000000     0.000000000  0.103766710  0.000000000
     0.000000000  0.000000000 32.542926360     0.000000000  0.000000000  0.030728644

  length of vectors
     8.345888640  9.637002110 32.542926360     0.119819476  0.103766710  0.030728644


 
 k-points in units of 2pi/SCALE and weight: automatic                               
   0.00000000  0.00000000  0.00000000       0.083
   0.02995487  0.00000000  0.00000000       0.167
   0.05990974  0.00000000  0.00000000       0.083
   0.00000000  0.03458890  0.00000000       0.167
   0.02995487  0.03458890  0.00000000       0.167
   0.05990974  0.03458890  0.00000000       0.167
  -0.02995487  0.03458890  0.00000000       0.167
 
 k-points in reciprocal lattice and weights: automatic                               
   0.00000000  0.00000000  0.00000000       0.083
   0.25000000  0.00000000  0.00000000       0.167
   0.50000000  0.00000000  0.00000000       0.083
   0.00000000  0.33333333  0.00000000       0.167
   0.25000000  0.33333333  0.00000000       0.167
   0.50000000  0.33333333  0.00000000       0.167
  -0.25000000  0.33333333  0.00000000       0.167
 
 position of ions in fractional coordinates (direct lattice) 
   0.98665887  0.10915620  0.48107975
   0.84153767  0.70022385  0.49117703
   0.55958478  0.62258593  0.43896252
   0.77522657  0.00447804  0.43978642
   0.39300588  0.06265051  0.46063674
   0.39883220  0.22794472  0.45566283
   0.21095486  0.20159152  0.62726473
   0.97228083  0.94162509  0.47890743
   0.62613817  0.10738664  0.56592971
   0.76217817  0.62543221  0.52731833
   0.20531696  0.43276089  0.52579053
   0.83989427  0.33138912  0.49745485
   0.55767034  0.12785979  0.51932488
   0.60786759  0.89609055  0.63673385
   0.94667364  0.71480267  0.64751876
   0.05895447  0.19990384  0.65493643
   0.51642892  0.08091628  0.74633343
   0.35405427  0.09365420  0.72261929
   0.50324135  0.53475936  0.65110120
   0.56595972  0.31877617  0.71363180
   0.17572115  0.55379996  0.64634846
   0.02597744  0.88210291  0.74295380
   0.73446769  0.15542746  0.63772592
   0.77489906  0.30588743  0.63647590
   0.02816163  0.65990838  0.43082258
   0.31758664  0.86451216  0.49697259
   0.60105255  0.04472976  0.44106586
   0.59270671  0.64004295  0.48246259
   0.22279216  0.40642645  0.43849016
   0.34956925  0.48454055  0.46208809
   0.44438488  0.50460533  0.56603867
   0.09882314  0.76643116  0.46244609
   0.22573518  0.77855409  0.56645065
   0.37650262  0.79371216  0.45772195
   0.51123436  0.89002113  0.59948893
   0.81638360  0.73278069  0.61356675
   0.18452375  0.92929918  0.57243256
   0.05823592  0.46888818  0.55347119
   0.79524948  0.22682321  0.53220929
   0.54765242  0.37269178  0.55625914
   0.98105467  0.60460236  0.70864866
   0.79501295  0.57297276  0.69436700
   0.94452142  0.90173472  0.67664686
   0.61380604  0.47928932  0.61686659
   0.56492876  0.32766190  0.73663042
   0.19715267  0.43325924  0.67485447
   0.52015694  0.91288257  0.69871722
   0.61242549  0.76184536  0.70453028
   0.73595777  0.69915657  0.50686858
   0.49743354  0.61860386  0.46453284
   0.27394265  0.40264137  0.46549210
   0.93289797  0.02738210  0.46969946
   0.47067110  0.06946015  0.71848950
   0.89195935  0.26663069  0.51600372
   0.17486579  0.48822684  0.55044211
   0.17315020  0.21964525  0.65480732
   0.60292302  0.17309174  0.54367992
   0.61405523  0.53189908  0.64424285
   0.05929758  0.95589500  0.72356878
   0.81663769  0.21746727  0.62876597
   0.32810030  0.88468477  0.46729665
   0.67085142  0.97306542  0.42820054
   0.46744308  0.14358818  0.46171493
   0.00263050  0.70543589  0.45729388
   0.88331493  0.64376476  0.69503702
   0.92988441  0.73677823  0.61770342
   0.58890918  0.95225426  0.61170368
   0.55437314  0.46777121  0.56678899
   0.26315138  0.87110226  0.55898007
   0.90764846  0.96576918  0.69736179
   0.20771122  0.53829376  0.67443508
   0.54087674  0.81902052  0.68663542
   0.16666667  0.08333333  0.21910656
   0.50000000  0.08333333  0.21910656
   0.83333333  0.08333333  0.21910656
   0.00000000  0.33333333  0.21910656
   0.33333333  0.33333333  0.21910656
   0.66666667  0.33333333  0.21910656
   0.16666667  0.58333333  0.21910656
   0.50000000  0.58333333  0.21910656
   0.83333333  0.58333333  0.21910656
   0.00000000  0.83333333  0.21910656
   0.33333333  0.83333333  0.21910656
   0.66666667  0.83333333  0.21910656
   0.00000000  0.16666667  0.28890555
   0.33333333  0.16666667  0.28890555
   0.66666667  0.16666667  0.28890555
   0.16666667  0.41666667  0.28890555
   0.50000000  0.41666667  0.28890555
   0.83333333  0.41666667  0.28890555
   0.00000000  0.66666667  0.28890555
   0.33333333  0.66666667  0.28890555
   0.66666667  0.66666667  0.28890555
   0.16666667  0.91666667  0.28890555
   0.50000000  0.91666667  0.28890555
   0.83333333  0.91666667  0.28890555
   0.00137279  0.01185954  0.36461254
   0.33290569  0.00592647  0.35818502
   0.66415140  0.00707981  0.36154021
   0.16002884  0.26038513  0.36116747
   0.49919996  0.25511619  0.35925190
   0.83251693  0.25611789  0.36041563
   0.00195286  0.50919856  0.36219696
   0.33645575  0.50972269  0.36124221
   0.66017765  0.50575679  0.36411895
   0.16379605  0.75669650  0.35971949
   0.50118493  0.75196970  0.35752041
   0.83370754  0.75526050  0.36449520
 
 position of ions in cartesian coordinates  (Angst):
   8.23454505  1.05193853 15.65574288
   7.02337968  6.74805872 15.98433792
   4.67023226  5.99986192 14.28512496
   6.46995462  0.04315488 14.31193708
   3.27998331  0.60376310 14.99046751
   3.32860913  2.19670375 14.82860192
   1.76060577  1.94273790 20.41302992
   8.11454753  9.07444298 15.58504923
   5.22567944  1.03488528 18.41700888
   6.36105413  6.02729153 17.16048158
   1.71355248  4.17051761 17.11076250
   7.00966405  3.19359765 16.18863655
   4.65425456  1.23218507 16.90035133
   5.07319521  8.63562652 20.72118279
   7.90083278  6.88855484 21.07215532
   0.49202744  1.92647373 21.31354801
   4.31005826  0.77979036 24.28787385
   2.95489751  0.90254572 23.51614634
   4.19999627  5.15347708 21.18873840
   4.72343680  3.07204662 23.22366712
   1.46654915  5.33697138 21.03407034
   0.21680482  8.50082760 24.17789080
   6.12978555  1.49785476 20.75346765
   6.46722126  2.94783781 20.71278834
   0.23503383  6.35953845 14.02022750
   2.65054273  8.33130551 16.17294240
   5.01631765  0.43106079 14.35357380
   4.94666420  6.16809526 15.70074454
   1.85939856  3.91673256 14.26975299
   2.91746603  4.66951830 15.03769868
   3.70878672  4.86288263 18.42055475
   0.82476692  7.38609871 15.04934905
   1.88396067  7.50292741 18.43396179
   3.14224894  7.64900576 14.89561171
   4.26670504  8.57713551 19.50912410
   6.81344661  7.06180906 19.96725756
   1.54001467  8.95565816 18.62863065
   0.48603050  4.51867638 18.01157218
   6.63706360  2.18589575 17.31964773
   4.57064611  3.59163147 18.10230023
   8.18777303  5.82655422 23.06150116
   6.63508955  5.52173970 22.59673415
   7.88287059  8.69001940 22.02006894
   5.12275686  4.61891219 20.07464401
   4.71483252  3.15767842 23.97210951
   1.64541423  4.17532021 21.96173932
   4.34117190  8.79745125 22.73830304
   5.11123494  7.34190534 22.92747702
   6.14222159  6.73777334 16.49498687
   4.15152493  5.96148670 15.11725800
   2.28629485  3.88025573 15.14847513
   7.78586257  0.26388136 15.28539494
   3.92816859  0.66938761 23.38175089
   7.44419341  2.56952052 16.79227106
   1.45941041  4.70504309 17.91299705
   1.44509229  2.11672174 21.30934639
   5.03192838  1.66808546 17.69293560
   5.12483657  5.12591256 20.96554763
   0.49489100  9.21196213 23.54704552
   6.81556722  2.09573254 20.46188466
   2.73828857  8.52570900 15.20720047
   5.59885125  9.37743351 13.93489864
   3.90122789  1.38375959 15.02555497
   0.02195386  6.79828716 14.88168106
   7.37204804  6.20396235 22.61853856
   7.76071173  7.10033336 20.10187691
   4.91497044  9.17687631 19.90662781
   4.62673649  4.50791214 18.44497236
   2.19623211  8.39481432 18.19084725
   7.57513297  9.30711963 22.69419338
   1.73353471  5.18753810 21.94809114
   4.51409704  7.89290248 22.34512591
   1.39098147  0.80308348  7.13036865
   4.17294432  0.80308348  7.13036865
   6.95490717  0.80308348  7.13036865
   0.00000000  3.21233400  7.13036865
   2.78196285  3.21233400  7.13036865
   5.56392579  3.21233400  7.13036865
   1.39098147  5.62158453  7.13036865
   4.17294432  5.62158453  7.13036865
   6.95490717  5.62158453  7.13036865
   0.00000000  8.03083506  7.13036865
   2.78196285  8.03083506  7.13036865
   5.56392579  8.03083506  7.13036865
   0.00000000  1.60616705  9.40183204
   2.78196285  1.60616705  9.40183204
   5.56392579  1.60616705  9.40183204
   1.39098147  4.01541758  9.40183204
   4.17294432  4.01541758  9.40183204
   6.95490717  4.01541758  9.40183204
   0.00000000  6.42466811  9.40183204
   2.78196285  6.42466811  9.40183204
   5.56392579  6.42466811  9.40183204
   1.39098147  8.83391863  9.40183204
   4.17294432  8.83391863  9.40183204
   6.95490717  8.83391863  9.40183204
   0.01145715  0.11429041 11.86555904
   2.77839382  0.05711340 11.65638873
   5.54293362  0.06822814 11.76557643
   1.33558288  2.50933205 11.75344638
   4.16626728  2.45855526 11.69110813
   6.94809359  2.46820865 11.72897931
   0.01629835  4.90714760 11.78694900
   2.80802222  4.91219864 11.75587864
   5.50976915  4.87397925 11.84949618
   1.36702359  7.29228577 11.70632487
   4.18283361  7.24673359 11.63476037
   6.95803029  7.27844703 11.86174045
 


--------------------------------------------------------------------------------------------------------


 k-point  1 :   0.0000 0.0000 0.0000  plane waves:   47615
 k-point  2 :   0.2500 0.0000 0.0000  plane waves:   47511
 k-point  3 :   0.5000 0.0000 0.0000  plane waves:   47600
 k-point  4 :   0.0000 0.3333 0.0000  plane waves:   47504
 k-point  5 :   0.2500 0.3333 0.0000  plane waves:   47550
 k-point  6 :   0.5000 0.3333 0.0000  plane waves:   47452
 k-point  7 :  -0.2500 0.3333 0.0000  plane waves:   47550

 maximum and minimum number of plane-waves per node :      3000     2944

 maximum number of plane-waves:     47615
 maximum index in each direction: 
   IXMAX=   13   IYMAX=   15   IZMAX=   53
   IXMIN=  -14   IYMIN=  -16   IZMIN=  -53


 real space projection operators:
  total allocation   :      12646.59 KBytes
  max/ min on nodes  :        956.59        547.78


 parallel 3D FFT for wavefunctions:
    minimum data exchange during FFTs selected (reduces bandwidth)
 parallel 3D FFT for charge:
    minimum data exchange during FFTs selected (reduces bandwidth)


 total amount of memory used by VASP MPI-rank0   167260. kBytes
=======================================================================

   base      :      30000. kBytes
   nonlr-proj:       4366. kBytes
   fftplans  :       6719. kBytes
   grid      :      12775. kBytes
   one-center:        108. kBytes
   wavefun   :     113292. kBytes
 
     INWAV:  cpu time    0.0000: real time    0.0002
 Broyden mixing: mesh for mixing (old mesh)
   NGX = 27   NGY = 31   NGZ =107
  (NGX  = 84   NGY  = 96   NGZ  =320)
  gives a total of  89559 points

 initial charge density was supplied:
 charge density of overlapping atoms calculated
 number of electron     552.0000000 magnetization 
 keeping initial charge density in first step


--------------------------------------------------------------------------------------------------------


 Maximum index for non-local projection operator          177
 Maximum index for augmentation-charges          854 (set IRDMAX)


--------------------------------------------------------------------------------------------------------


 First call to EWALD:  gamma=   0.129
 Maximum number of real-space cells 4x 4x 1
 Maximum number of reciprocal cells 2x 2x 6

    FEWALD:  cpu time    0.0054: real time    0.0054


--------------------------------------- Iteration      1(   1)  ---------------------------------------


    POTLOK:  cpu time    0.1303: real time    0.1358
    SETDIJ:  cpu time    0.0155: real time    0.0171
     EDDAV:  cpu time   26.5535: real time   26.6092
       DOS:  cpu time    0.0063: real time    0.0064
    --------------------------------------------
      LOOP:  cpu time   26.7056: real time   26.7685

 eigenvalue-minimisations  :  4786
 total energy-change (2. order) : 0.3720120E+04  (-0.2129050E+05)
 number of electron     552.0000000 magnetization 
 augmentation part      552.0000000 magnetization 

 DIPCOR: dipole corrections for dipol
 direction  3 min pos     1,
 dipolmoment           0.000000      0.000000      0.000106 electrons x Angstroem
 Tr[quadrupol]     -7618.021422

 energy correction for charged system         0.000000 eV
 dipol+quadrupol energy correction           -0.000000 eV
 added-field ion interaction          0.014560 eV  (added to PSCEN)


 Free energy of the ion-electron system (eV)
  ---------------------------------------------------
  alpha Z        PSCENC =       863.60154522
  Ewald energy   TEWEN  =    205146.35804036
  -Hartree energ DENC   =   -241918.17503712
  -exchange      EXHF   =         0.00000000
  -V(xc)+E(xc)   XCENC  =       878.66592292
  PAW double counting   =     33505.36643195   -32489.60540758
  entropy T*S    EENTRO =        -0.13446526
  eigenvalues    EBANDS =       540.09131795
  atomic energy  EATOM  =     37193.95212048
  Solvation  Ediel_sol  =         0.00000000
  ---------------------------------------------------
  free energy    TOTEN  =      3720.12046893 eV

  energy without entropy =     3720.25493419  energy(sigma->0) =     3720.18770156


--------------------------------------------------------------------------------------------------------




--------------------------------------- Iteration      1(   2)  ---------------------------------------


     EDDAV:  cpu time   31.0358: real time   31.0800
       DOS:  cpu time    0.0068: real time    0.0068
    --------------------------------------------
      LOOP:  cpu time   31.0426: real time   31.0868

 eigenvalue-minimisations  :  5812
 total energy-change (2. order) :-0.3863311E+04  (-0.3670111E+04)
 number of electron     552.0000000 magnetization 
 augmentation part      552.0000000 magnetization 

 DIPCOR: dipole corrections for dipol
 direction  3 min pos     1,
 dipolmoment           0.000000      0.000000      0.000106 electrons x Angstroem
 Tr[quadrupol]     -7618.021422

 energy correction for charged system         0.000000 eV
 dipol+quadrupol energy correction           -0.000000 eV
 added-field ion interaction          0.014560 eV  (added to PSCEN)


 Free energy of the ion-electron system (eV)
  ---------------------------------------------------
  alpha Z        PSCENC =       863.60154522
  Ewald energy   TEWEN  =    205146.35804036
  -Hartree energ DENC   =   -241918.17503712
  -exchange      EXHF   =         0.00000000
  -V(xc)+E(xc)   XCENC  =       878.66592292
  PAW double counting   =     33505.36643195   -32489.60540758
  entropy T*S    EENTRO =        -0.21077065
  eigenvalues    EBANDS =     -3323.14328042
  atomic energy  EATOM  =     37193.95212048
  Solvation  Ediel_sol  =         0.00000000
  ---------------------------------------------------
  free energy    TOTEN  =      -143.19043483 eV

  energy without entropy =     -142.97966419  energy(sigma->0) =     -143.08504951


--------------------------------------------------------------------------------------------------------




--------------------------------------- Iteration      1(   3)  ---------------------------------------


     EDDAV:  cpu time   28.7829: real time   28.8179
       DOS:  cpu time    0.0066: real time    0.0066
    --------------------------------------------
      LOOP:  cpu time   28.7895: real time   28.8245

 eigenvalue-minimisations  :  5276
 total energy-change (2. order) :-0.4143052E+03  (-0.4007323E+03)
 number of electron     552.0000000 magnetization 
 augmentation part      552.0000000 magnetization 

 DIPCOR: dipole corrections for dipol
 direction  3 min pos     1,
 dipolmoment           0.000000      0.000000      0.000106 electrons x Angstroem
 Tr[quadrupol]     -7618.021422

 energy correction for charged system         0.000000 eV
 dipol+quadrupol energy correction           -0.000000 eV
 added-field ion interaction          0.014560 eV  (added to PSCEN)


 Free energy of the ion-electron system (eV)
  ---------------------------------------------------
  alpha Z        PSCENC =       863.60154522
  Ewald energy   TEWEN  =    205146.35804036
  -Hartree energ DENC   =   -241918.17503712
  -exchange      EXHF   =         0.00000000
  -V(xc)+E(xc)   XCENC  =       878.66592292
  PAW double counting   =     33505.36643195   -32489.60540758
  entropy T*S    EENTRO =        -0.24001115
  eigenvalues    EBANDS =     -3737.41927463
  atomic energy  EATOM  =     37193.95212048
  Solvation  Ediel_sol  =         0.00000000
  ---------------------------------------------------
  free energy    TOTEN  =      -557.49566954 eV

  energy without entropy =     -557.25565840  energy(sigma->0) =     -557.37566397


--------------------------------------------------------------------------------------------------------




--------------------------------------- Iteration      1(   4)  ---------------------------------------


     EDDAV:  cpu time   31.1523: real time   31.2063
       DOS:  cpu time    0.0072: real time    0.0071
    --------------------------------------------
      LOOP:  cpu time   31.1595: real time   31.2134

 eigenvalue-minimisations  :  5812
 total energy-change (2. order) :-0.1379644E+02  (-0.1361494E+02)
 number of electron     552.0000000 magnetization 
 augmentation part      552.0000000 magnetization 

 DIPCOR: dipole corrections for dipol
 direction  3 min pos     1,
 dipolmoment           0.000000      0.000000      0.000106 electrons x Angstroem
 Tr[quadrupol]     -7618.021422

 energy correction for charged system         0.000000 eV
 dipol+quadrupol energy correction           -0.000000 eV
 added-field ion interaction          0.014560 eV  (added to PSCEN)


 Free energy of the ion-electron system (eV)
  ---------------------------------------------------
  alpha Z        PSCENC =       863.60154522
  Ewald energy   TEWEN  =    205146.35804036
  -Hartree energ DENC   =   -241918.17503712
  -exchange      EXHF   =         0.00000000
  -V(xc)+E(xc)   XCENC  =       878.66592292
  PAW double counting   =     33505.36643195   -32489.60540758
  entropy T*S    EENTRO =        -0.28161717
  eigenvalues    EBANDS =     -3751.17411228
  atomic energy  EATOM  =     37193.95212048
  Solvation  Ediel_sol  =         0.00000000
  ---------------------------------------------------
  free energy    TOTEN  =      -571.29211322 eV

  energy without entropy =     -571.01049605  energy(sigma->0) =     -571.15130463


--------------------------------------------------------------------------------------------------------




--------------------------------------- Iteration      1(   5)  ---------------------------------------


     EDDAV:  cpu time   33.3609: real time   33.4054
       DOS:  cpu time    0.0072: real time    0.0073
    CHARGE:  cpu time    0.7937: real time    0.7945
    MIXING:  cpu time    0.0048: real time    0.0055
    --------------------------------------------
      LOOP:  cpu time   34.1667: real time   34.2126

 eigenvalue-minimisations  :  6308
 total energy-change (2. order) :-0.4795185E+00  (-0.4576766E+00)
 number of electron     551.9999968 magnetization 
 augmentation part      124.0750014 magnetization 

 DIPCOR: dipole corrections for dipol
 direction  3 min pos     1,
 dipolmoment           0.000000      0.000000      0.000106 electrons x Angstroem
 Tr[quadrupol]     -7618.021422

 energy correction for charged system         0.000000 eV
 dipol+quadrupol energy correction           -0.000000 eV
 added-field ion interaction          0.014560 eV  (added to PSCEN)


 Broyden mixing:
  rms(total) = 0.69071E+01    rms(broyden)= 0.69029E+01
  rms(prec ) = 0.70255E+01
  weight for this iteration     100.00

 Free energy of the ion-electron system (eV)
  ---------------------------------------------------
  alpha Z        PSCENC =       863.60154522
  Ewald energy   TEWEN  =    205146.35804036
  -Hartree energ DENC   =   -241918.17503712
  -exchange      EXHF   =         0.00000000
  -V(xc)+E(xc)   XCENC  =       878.66592292
  PAW double counting   =     33505.36643195   -32489.60540758
  entropy T*S    EENTRO =        -0.29002933
  eigenvalues    EBANDS =     -3751.64521861
  atomic energy  EATOM  =     37193.95212048
  Solvation  Ediel_sol  =         0.00000000
  ---------------------------------------------------
  free energy    TOTEN  =      -571.77163170 eV

  energy without entropy =     -571.48160237  energy(sigma->0) =     -571.62661704


--------------------------------------------------------------------------------------------------------




--------------------------------------- Iteration      1(   6)  ---------------------------------------


    POTLOK:  cpu time    0.1243: real time    0.1251
    SETDIJ:  cpu time    0.0152: real time    0.0152
     EDDAV:  cpu time   29.4362: real time   29.4706
       DOS:  cpu time    0.0069: real time    0.0069
    CHARGE:  cpu time    0.7822: real time    0.7830
    MIXING:  cpu time    0.0048: real time    0.0059
    --------------------------------------------
      LOOP:  cpu time   30.3696: real time   30.4067

 eigenvalue-minimisations  :  5412
 total energy-change (2. order) :-0.4522092E+00  (-0.3168221E+02)
 number of electron     552.0000176 magnetization 
 augmentation part      133.2615472 magnetization 

 DIPCOR: dipole corrections for dipol
 direction  3 min pos     1,
 dipolmoment           0.000000      0.000000      2.449730 electrons x Angstroem
 Tr[quadrupol]     -7622.056483

 energy correction for charged system         0.000000 eV
 dipol+quadrupol energy correction           -0.207444 eV
 added-field ion interaction        337.008703 eV  (added to PSCEN)


 Broyden mixing:
  rms(total) = 0.81329E+01    rms(broyden)= 0.81208E+01
  rms(prec ) = 0.99516E+01
  weight for this iteration     100.00

 eigenvalues of (default mixing * dielectric matrix)
  average eigenvalue GAMMA=   0.3826
  0.3826

 Free energy of the ion-electron system (eV)
  ---------------------------------------------------
  alpha Z        PSCENC =      1200.38824428
  Ewald energy   TEWEN  =    205146.35804036
  -Hartree energ DENC   =   -241818.24908282
  -exchange      EXHF   =         0.00000000
  -V(xc)+E(xc)   XCENC  =       899.42353417
  PAW double counting   =     38137.03829334   -37179.24128186
  entropy T*S    EENTRO =        -0.19200308
  eigenvalues    EBANDS =     -4151.70170580
  atomic energy  EATOM  =     37193.95212048
  Solvation  Ediel_sol  =         0.00000000
  ---------------------------------------------------
  free energy    TOTEN  =      -572.22384092 eV

  energy without entropy =     -572.03183784  energy(sigma->0) =     -572.12783938


--------------------------------------------------------------------------------------------------------




--------------------------------------- Iteration      1(   7)  ---------------------------------------


    POTLOK:  cpu time    0.1237: real time    0.1307
    SETDIJ:  cpu time    0.0152: real time    0.0152
     EDDAV:  cpu time   40.9970: real time   41.0448
       DOS:  cpu time    0.0062: real time    0.0062
    CHARGE:  cpu time    0.8012: real time    0.8020
    MIXING:  cpu time    0.0049: real time    0.0049
    --------------------------------------------
      LOOP:  cpu time   41.9482: real time   42.0037

 eigenvalue-minimisations  :  8136
 total energy-change (2. order) :-0.4359344E+03  (-0.3577700E+03)
 number of electron     551.9999935 magnetization 
 augmentation part       92.6641448 magnetization 

 DIPCOR: dipole corrections for dipol
 direction  3 min pos     1,
 dipolmoment           0.000000      0.000000     -7.238405 electrons x Angstroem
 Tr[quadrupol]     -7600.789683

 energy correction for charged system         0.000000 eV
 dipol+quadrupol energy correction           -1.811134 eV
 added-field ion interaction       -995.785481 eV  (added to PSCEN)


 Broyden mixing:
  rms(total) = 0.10114E+02    rms(broyden)= 0.10108E+02
  rms(prec ) = 0.22997E+02
  weight for this iteration     100.00

 eigenvalues of (default mixing * dielectric matrix)
  average eigenvalue GAMMA=   0.5029
  0.8666  0.1391

 Free energy of the ion-electron system (eV)
  ---------------------------------------------------
  alpha Z        PSCENC =      -134.00962900
  Ewald energy   TEWEN  =    205146.35804036
  -Hartree energ DENC   =   -242748.54881534
  -exchange      EXHF   =         0.00000000
  -V(xc)+E(xc)   XCENC  =       895.54559869
  PAW double counting   =     39211.49067756   -38254.81641851
  entropy T*S    EENTRO =        -0.29825254
  eigenvalues    EBANDS =     -2317.83158133
  atomic energy  EATOM  =     37193.95212048
  Solvation  Ediel_sol  =         0.00000000
  ---------------------------------------------------
  free energy    TOTEN  =     -1008.15825962 eV

  energy without entropy =    -1007.86000708  energy(sigma->0) =    -1008.00913335


--------------------------------------------------------------------------------------------------------




--------------------------------------- Iteration      1(   8)  ---------------------------------------


    POTLOK:  cpu time    0.1239: real time    0.1249
    SETDIJ:  cpu time    0.0152: real time    0.0152
     EDDAV:  cpu time   39.1949: real time   39.2469
       DOS:  cpu time    0.0066: real time    0.0066
    CHARGE:  cpu time    0.7832: real time    0.7840
    MIXING:  cpu time    0.0050: real time    0.0050
    --------------------------------------------
      LOOP:  cpu time   40.1288: real time   40.1826

 eigenvalue-minimisations  :  7692
 total energy-change (2. order) : 0.3958023E+03  (-0.1304743E+04)
 number of electron     552.0000138 magnetization 
 augmentation part      131.6860212 magnetization 

 DIPCOR: dipole corrections for dipol
 direction  3 min pos     1,
 dipolmoment           0.000000      0.000000      8.736507 electrons x Angstroem
 Tr[quadrupol]     -7610.319062

 energy correction for charged system         0.000000 eV
 dipol+quadrupol energy correction           -2.638399 eV
 added-field ion interaction       1201.879046 eV  (added to PSCEN)


 Broyden mixing:
  rms(total) = 0.11561E+02    rms(broyden)= 0.11551E+02
  rms(prec ) = 0.15043E+02
  weight for this iteration     100.00

 eigenvalues of (default mixing * dielectric matrix)
  average eigenvalue GAMMA=   0.3361
  0.8627  0.1148  0.0308

 Free energy of the ion-electron system (eV)
  ---------------------------------------------------
  alpha Z        PSCENC =      2062.82763314
  Ewald energy   TEWEN  =    205146.35804036
  -Hartree energ DENC   =   -241281.79686353
  -exchange      EXHF   =         0.00000000
  -V(xc)+E(xc)   XCENC  =       888.00350636
  PAW double counting   =     39743.31603770   -38797.87988052
  entropy T*S    EENTRO =        -0.12034249
  eigenvalues    EBANDS =     -5567.01623073
  atomic energy  EATOM  =     37193.95212048
  Solvation  Ediel_sol  =         0.00000000
  ---------------------------------------------------
  free energy    TOTEN  =      -612.35597923 eV

  energy without entropy =     -612.23563673  energy(sigma->0) =     -612.29580798


--------------------------------------------------------------------------------------------------------




--------------------------------------- Iteration      1(   9)  ---------------------------------------


    POTLOK:  cpu time    0.1245: real time    0.1316
    SETDIJ:  cpu time    0.0152: real time    0.0152
     EDDAV:  cpu time   28.5193: real time   28.5653
       DOS:  cpu time    0.0071: real time    0.0071
    CHARGE:  cpu time    0.7811: real time    0.7817
    MIXING:  cpu time    0.0051: real time    0.0051
    --------------------------------------------
      LOOP:  cpu time   29.4523: real time   29.5059

 eigenvalue-minimisations  :  5196
 total energy-change (2. order) :-0.1740221E+03  (-0.1561739E+03)
 number of electron     552.0000184 magnetization 
 augmentation part      135.1372257 magnetization 

 DIPCOR: dipole corrections for dipol
 direction  3 min pos     1,
 dipolmoment           0.000000      0.000000      8.635992 electrons x Angstroem
 Tr[quadrupol]     -7612.605881

 energy correction for charged system         0.000000 eV
 dipol+quadrupol energy correction           -2.578037 eV
 added-field ion interaction       1188.051224 eV  (added to PSCEN)


 Broyden mixing:
  rms(total) = 0.12164E+02    rms(broyden)= 0.12162E+02
  rms(prec ) = 0.17127E+02
  weight for this iteration     100.00

 eigenvalues of (default mixing * dielectric matrix)
  average eigenvalue GAMMA=   0.2695
  0.7817  0.1080  0.1512  0.0371

 Free energy of the ion-electron system (eV)
  ---------------------------------------------------
  alpha Z        PSCENC =      2049.06017234
  Ewald energy   TEWEN  =    205146.35804036
  -Hartree energ DENC   =   -241310.18741564
  -exchange      EXHF   =         0.00000000
  -V(xc)+E(xc)   XCENC  =       889.61158370
  PAW double counting   =     39685.90548992   -38740.08564787
  entropy T*S    EENTRO =        -0.13084911
  eigenvalues    EBANDS =     -5700.86158906
  atomic energy  EATOM  =     37193.95212048
  Solvation  Ediel_sol  =         0.00000000
  ---------------------------------------------------
  free energy    TOTEN  =      -786.37809488 eV

  energy without entropy =     -786.24724577  energy(sigma->0) =     -786.31267033


--------------------------------------------------------------------------------------------------------




--------------------------------------- Iteration      1(  10)  ---------------------------------------


    POTLOK:  cpu time    0.1230: real time    0.1233
    SETDIJ:  cpu time    0.0151: real time    0.0152
     EDDAV:  cpu time   31.6350: real time   31.6718
       DOS:  cpu time    0.0069: real time    0.0070
    CHARGE:  cpu time    0.7814: real time    0.7821
    MIXING:  cpu time    0.0054: real time    0.0062
    --------------------------------------------
      LOOP:  cpu time   32.5668: real time   32.6055

 eigenvalue-minimisations  :  5916
 total energy-change (2. order) : 0.9181331E+02  (-0.1992082E+02)
 number of electron     552.0000175 magnetization 
 augmentation part      132.0571183 magnetization 

 DIPCOR: dipole corrections for dipol
 direction  3 min pos     1,
 dipolmoment           0.000000      0.000000      8.193532 electrons x Angstroem
 Tr[quadrupol]     -7603.947741

 energy correction for charged system         0.000000 eV
 dipol+quadrupol energy correction           -2.320636 eV
 added-field ion interaction       1127.182076 eV  (added to PSCEN)


 Broyden mixing:
  rms(total) = 0.96554E+01    rms(broyden)= 0.96489E+01
  rms(prec ) = 0.12763E+02
  weight for this iteration     100.00

 eigenvalues of (default mixing * dielectric matrix)
  average eigenvalue GAMMA=   0.2822
  0.8195  0.1898  0.1736  0.1736  0.0544

 Free energy of the ion-electron system (eV)
  ---------------------------------------------------
  alpha Z        PSCENC =      1988.44842556
  Ewald energy   TEWEN  =    205146.35804036
  -Hartree energ DENC   =   -241472.51598638
  -exchange      EXHF   =         0.00000000
  -V(xc)+E(xc)   XCENC  =       889.36873612
  PAW double counting   =     37273.28375498   -36326.13923455
  entropy T*S    EENTRO =        -0.17715658
  eigenvalues    EBANDS =     -5387.14348304
  atomic energy  EATOM  =     37193.95212048
  Solvation  Ediel_sol  =         0.00000000
  ---------------------------------------------------
  free energy    TOTEN  =      -694.56478305 eV

  energy without entropy =     -694.38762648  energy(sigma->0) =     -694.47620477


--------------------------------------------------------------------------------------------------------




--------------------------------------- Iteration      1(  11)  ---------------------------------------


    POTLOK:  cpu time    0.1245: real time    0.1307
    SETDIJ:  cpu time    0.0151: real time    0.0151
     EDDAV:  cpu time   30.6690: real time   30.7059
       DOS:  cpu time    0.0071: real time    0.0071
    CHARGE:  cpu time    0.7836: real time    0.7842
    MIXING:  cpu time    0.0051: real time    0.0051
    --------------------------------------------
      LOOP:  cpu time   31.6043: real time   31.6481

 eigenvalue-minimisations  :  5700
 total energy-change (2. order) : 0.3446459E+02  (-0.6855993E+01)
 number of electron     552.0000111 magnetization 
 augmentation part      134.2101066 magnetization 

 DIPCOR: dipole corrections for dipol
 direction  3 min pos     1,
 dipolmoment           0.000000      0.000000      8.753625 electrons x Angstroem
 Tr[quadrupol]     -7587.432341

 energy correction for charged system         0.000000 eV
 dipol+quadrupol energy correction           -2.648748 eV
 added-field ion interaction       1204.234043 eV  (added to PSCEN)


 Broyden mixing:
  rms(total) = 0.86126E+01    rms(broyden)= 0.86078E+01
  rms(prec ) = 0.12013E+02
  weight for this iteration     100.00

 eigenvalues of (default mixing * dielectric matrix)
  average eigenvalue GAMMA=   0.3147
  0.7893  0.2482  0.3265  0.3265  0.1464  0.0513

 Free energy of the ion-electron system (eV)
  ---------------------------------------------------
  alpha Z        PSCENC =      2065.17228043
  Ewald energy   TEWEN  =    205146.35804036
  -Hartree energ DENC   =   -241317.44003834
  -exchange      EXHF   =         0.00000000
  -V(xc)+E(xc)   XCENC  =       888.15772367
  PAW double counting   =     35682.59845401   -34740.17667485
  entropy T*S    EENTRO =        -0.15863043
  eigenvalues    EBANDS =     -5578.56347072
  atomic energy  EATOM  =     37193.95212048
  Solvation  Ediel_sol  =         0.00000000
  ---------------------------------------------------
  free energy    TOTEN  =      -660.10019538 eV

  energy without entropy =     -659.94156496  energy(sigma->0) =     -660.02088017


--------------------------------------------------------------------------------------------------------




--------------------------------------- Iteration      1(  12)  ---------------------------------------


    POTLOK:  cpu time    0.1231: real time    0.1234
    SETDIJ:  cpu time    0.0150: real time    0.0151
     EDDAV:  cpu time   29.4473: real time   29.4822
       DOS:  cpu time    0.0075: real time    0.0075
    CHARGE:  cpu time    0.7951: real time    0.7958
    MIXING:  cpu time    0.0052: real time    0.0052
    --------------------------------------------
      LOOP:  cpu time   30.3932: real time   30.4293

 eigenvalue-minimisations  :  5404
 total energy-change (2. order) : 0.5003493E+02  (-0.8399576E+01)
 number of electron     552.0000154 magnetization 
 augmentation part      129.6149994 magnetization 

 DIPCOR: dipole corrections for dipol
 direction  3 min pos     1,
 dipolmoment           0.000000      0.000000      9.435464 electrons x Angstroem
 Tr[quadrupol]     -7578.757366

 energy correction for charged system         0.000000 eV
 dipol+quadrupol energy correction           -3.077452 eV
 added-field ion interaction       1298.034414 eV  (added to PSCEN)


 Broyden mixing:
  rms(total) = 0.68770E+01    rms(broyden)= 0.68597E+01
  rms(prec ) = 0.83568E+01
  weight for this iteration     100.00

 eigenvalues of (default mixing * dielectric matrix)
  average eigenvalue GAMMA=   0.3891
  1.1780  0.2670  0.4324  0.4324  0.2142  0.1484  0.0514

 Free energy of the ion-electron system (eV)
  ---------------------------------------------------
  alpha Z        PSCENC =      2158.54394765
  Ewald energy   TEWEN  =    205146.35804036
  -Hartree energ DENC   =   -241514.51566918
  -exchange      EXHF   =         0.00000000
  -V(xc)+E(xc)   XCENC  =       888.05936651
  PAW double counting   =     34139.23041256   -33199.26537604
  entropy T*S    EENTRO =        -0.39443127
  eigenvalues    EBANDS =     -5422.03367259
  atomic energy  EATOM  =     37193.95212048
  Solvation  Ediel_sol  =         0.00000000
  ---------------------------------------------------
  free energy    TOTEN  =      -610.06526150 eV

  energy without entropy =     -609.67083023  energy(sigma->0) =     -609.86804586


--------------------------------------------------------------------------------------------------------




--------------------------------------- Iteration      1(  13)  ---------------------------------------


    POTLOK:  cpu time    0.1236: real time    0.1315
    SETDIJ:  cpu time    0.0150: real time    0.0150
     EDDAV:  cpu time   30.2506: real time   30.2859
       DOS:  cpu time    0.0069: real time    0.0069
    CHARGE:  cpu time    0.7877: real time    0.7885
    MIXING:  cpu time    0.0057: real time    0.0057
    --------------------------------------------
      LOOP:  cpu time   31.1895: real time   31.2335

 eigenvalue-minimisations  :  5596
 total energy-change (2. order) : 0.1094703E+02  (-0.7708069E+01)
 number of electron     552.0000081 magnetization 
 augmentation part      132.9025526 magnetization 

 DIPCOR: dipole corrections for dipol
 direction  3 min pos     1,
 dipolmoment           0.000000      0.000000     10.615719 electrons x Angstroem
 Tr[quadrupol]     -7541.367216

 energy correction for charged system         0.000000 eV
 dipol+quadrupol energy correction           -3.895504 eV
 added-field ion interaction       1460.401832 eV  (added to PSCEN)


 Broyden mixing:
  rms(total) = 0.74773E+01    rms(broyden)= 0.74659E+01
  rms(prec ) = 0.90618E+01
  weight for this iteration     100.00

 eigenvalues of (default mixing * dielectric matrix)
  average eigenvalue GAMMA=   0.4014
  1.3499  0.2716  0.4841  0.4841  0.0514  0.2138  0.2138  0.1423

 Free energy of the ion-electron system (eV)
  ---------------------------------------------------
  alpha Z        PSCENC =      2320.09331346
  Ewald energy   TEWEN  =    205146.35804036
  -Hartree energ DENC   =   -241280.76302477
  -exchange      EXHF   =         0.00000000
  -V(xc)+E(xc)   XCENC  =       889.20848018
  PAW double counting   =     33160.05240350   -32231.08387204
  entropy T*S    EENTRO =        -0.20116713
  eigenvalues    EBANDS =     -5796.73452665
  atomic energy  EATOM  =     37193.95212048
  Solvation  Ediel_sol  =         0.00000000
  ---------------------------------------------------
  free energy    TOTEN  =      -599.11823260 eV

  energy without entropy =     -598.91706547  energy(sigma->0) =     -599.01764904


--------------------------------------------------------------------------------------------------------




--------------------------------------- Iteration      1(  14)  ---------------------------------------


    POTLOK:  cpu time    0.1227: real time    0.1245
    SETDIJ:  cpu time    0.0150: real time    0.0150
     EDDAV:  cpu time   29.0531: real time   29.0929
       DOS:  cpu time    0.0071: real time    0.0071
    CHARGE:  cpu time    0.8009: real time    0.8016
    MIXING:  cpu time    0.0057: real time    0.0057
    --------------------------------------------
      LOOP:  cpu time   30.0044: real time   30.0469

 eigenvalue-minimisations  :  5300
 total energy-change (2. order) : 0.3608421E+02  (-0.1172294E+02)
 number of electron     551.9999976 magnetization 
 augmentation part      125.6009482 magnetization 

 DIPCOR: dipole corrections for dipol
 direction  3 min pos     1,
 dipolmoment           0.000000      0.000000     10.835582 electrons x Angstroem
 Tr[quadrupol]     -7534.123631

 energy correction for charged system         0.000000 eV
 dipol+quadrupol energy correction           -4.058534 eV
 added-field ion interaction       1490.648244 eV  (added to PSCEN)


 Broyden mixing:
  rms(total) = 0.49026E+01    rms(broyden)= 0.48874E+01
  rms(prec ) = 0.49990E+01
  weight for this iteration     100.00

 eigenvalues of (default mixing * dielectric matrix)
  average eigenvalue GAMMA=   0.4549
  1.7983  0.5222  0.5222  0.2726  0.2891  0.2891  0.0514  0.1442  0.2052

 Free energy of the ion-electron system (eV)
  ---------------------------------------------------
  alpha Z        PSCENC =      2350.17669459
  Ewald energy   TEWEN  =    205146.35804036
  -Hartree energ DENC   =   -241530.67832315
  -exchange      EXHF   =         0.00000000
  -V(xc)+E(xc)   XCENC  =       891.54232950
  PAW double counting   =     32575.96574292   -31650.30813491
  entropy T*S    EENTRO =        -0.26783827
  eigenvalues    EBANDS =     -5539.77465350
  atomic energy  EATOM  =     37193.95212048
  Solvation  Ediel_sol  =         0.00000000
  ---------------------------------------------------
  free energy    TOTEN  =      -563.03402198 eV

  energy without entropy =     -562.76618371  energy(sigma->0) =     -562.90010284


--------------------------------------------------------------------------------------------------------




--------------------------------------- Iteration      1(  15)  ---------------------------------------


    POTLOK:  cpu time    0.1231: real time    0.1282
    SETDIJ:  cpu time    0.0150: real time    0.0150
     EDDAV:  cpu time   28.9347: real time   28.9797
       DOS:  cpu time    0.0071: real time    0.0072
    CHARGE:  cpu time    0.7927: real time    0.7935
    MIXING:  cpu time    0.0061: real time    0.0061
    --------------------------------------------
      LOOP:  cpu time   29.8787: real time   29.9297

 eigenvalue-minimisations  :  5284
 total energy-change (2. order) : 0.6053643E+01  (-0.1281257E+01)
 number of electron     551.9999992 magnetization 
 augmentation part      125.7825993 magnetization 

 DIPCOR: dipole corrections for dipol
 direction  3 min pos     1,
 dipolmoment           0.000000      0.000000     10.325500 electrons x Angstroem
 Tr[quadrupol]     -7529.703619

 energy correction for charged system         0.000000 eV
 dipol+quadrupol energy correction           -3.685420 eV
 added-field ion interaction       1420.476493 eV  (added to PSCEN)


 Broyden mixing:
  rms(total) = 0.46031E+01    rms(broyden)= 0.46025E+01
  rms(prec ) = 0.46845E+01
  weight for this iteration     100.00

 eigenvalues of (default mixing * dielectric matrix)
  average eigenvalue GAMMA=   0.4848
  1.9327  0.5697  0.5697  0.2728  0.4161  0.4161  0.0514  0.2604  0.1439  0.2150

 Free energy of the ion-electron system (eV)
  ---------------------------------------------------
  alpha Z        PSCENC =      2280.37805808
  Ewald energy   TEWEN  =    205146.35804036
  -Hartree energ DENC   =   -241667.71551573
  -exchange      EXHF   =         0.00000000
  -V(xc)+E(xc)   XCENC  =       894.53642141
  PAW double counting   =     32973.99635532   -32057.79784135
  entropy T*S    EENTRO =        -0.30559176
  eigenvalues    EBANDS =     -5320.38242538
  atomic energy  EATOM  =     37193.95212048
  Solvation  Ediel_sol  =         0.00000000
  ---------------------------------------------------
[...]
   0.188E+01 0.693E+02 -.185E+03   -.220E+01 -.753E+02 0.185E+03   0.555E+00 0.715E+01 -.207E+00   0.574E-02 0.415E-02 0.696E-03
   0.168E+02 -.480E+02 -.195E+03   -.181E+02 0.540E+02 0.198E+03   0.148E+01 -.674E+01 -.263E+01   -.904E-02 -.976E-02 0.789E-02
   -.328E+02 0.491E+02 -.225E+03   0.366E+02 -.523E+02 0.228E+03   -.447E+01 0.436E+01 -.417E+01   -.184E-01 -.257E-01 0.171E-01
   0.129E+00 -.409E+02 -.110E+04   -.312E+02 0.685E+02 0.110E+04   0.330E+02 -.285E+02 0.460E+01   -.296E-02 -.935E-02 -.228E+00
   0.449E+02 0.469E+02 -.101E+04   -.833E+02 -.535E+02 0.102E+04   0.385E+02 0.663E+01 -.123E+02   -.183E-02 -.759E-02 -.225E+00
   0.550E+02 0.611E+02 -.105E+04   -.594E+02 -.850E+02 0.108E+04   0.522E+01 0.247E+02 -.345E+02   -.135E-02 0.138E-02 -.222E+00
   -.361E+02 -.404E+02 -.103E+04   0.660E+01 0.481E+02 0.100E+04   0.288E+02 -.620E+01 0.239E+02   -.582E-02 0.747E-02 -.228E+00
   -.398E+01 -.591E+02 -.974E+03   0.229E+02 0.513E+02 0.935E+03   -.203E+02 0.823E+01 0.395E+02   0.676E-01 0.104E+00 0.128E+00
   -.105E+03 -.229E+02 -.105E+04   0.145E+03 0.105E+02 0.106E+04   -.408E+02 0.121E+02 -.761E+01   -.388E-02 0.134E-01 -.221E+00
   0.515E+00 -.172E+02 -.111E+04   0.242E+02 0.424E+02 0.114E+04   -.253E+02 -.257E+02 -.235E+02   0.218E-04 -.686E-02 -.211E+00
   -.556E+02 -.195E+02 -.106E+04   0.799E+02 0.319E+02 0.110E+04   -.240E+02 -.123E+02 -.354E+02   0.694E-01 0.146E+00 -.132E+00
   0.363E+02 -.180E+02 -.108E+04   -.321E+02 0.564E+02 0.108E+04   -.402E+01 -.379E+02 -.220E+01   -.116E-02 0.141E-01 -.226E+00
   -.129E+02 0.237E+02 -.111E+04   0.495E+02 -.740E+01 0.112E+04   -.352E+02 -.173E+02 -.174E+02   -.196E-01 -.292E-01 -.726E-01
   -.167E+03 -.443E+02 -.107E+04   0.201E+03 0.716E+02 0.106E+04   -.354E+02 -.274E+02 0.867E+01   0.668E+00 0.270E-01 0.506E+00
   -.692E+02 -.792E+01 -.103E+04   0.111E+03 -.309E+01 0.101E+04   -.407E+02 0.107E+02 0.232E+02   -.265E-01 0.121E+00 -.210E+00
   0.512E+02 -.426E+02 -.100E+04   -.609E+02 0.749E+02 0.976E+03   0.955E+01 -.339E+02 0.240E+02   0.315E-02 0.790E-03 -.232E+00
   0.110E+01 0.593E+02 -.970E+03   -.109E+02 -.959E+02 0.958E+03   0.984E+01 0.368E+02 0.118E+02   0.810E-03 -.119E-02 -.227E+00
   -.248E+01 -.735E+02 -.103E+04   0.379E+02 0.758E+02 0.104E+04   -.366E+02 -.174E+01 -.818E+01   0.815E-02 0.619E-02 -.217E+00
   0.197E+02 0.544E+02 -.104E+04   -.513E+02 -.593E+02 0.106E+04   0.328E+02 0.569E+01 -.211E+02   0.351E-03 -.945E-02 -.230E+00
   -.908E+00 0.435E+02 -.110E+04   -.272E+01 -.639E+01 0.108E+04   0.370E+01 -.376E+02 0.156E+02   -.516E-01 -.218E+00 0.342E-01
   -.812E+02 -.226E+02 -.929E+03   0.115E+03 0.309E+02 0.901E+03   -.320E+02 -.780E+01 0.289E+02   0.115E-02 -.111E+00 -.245E+00
   0.310E+01 -.603E+02 -.996E+03   0.148E+02 0.996E+02 0.984E+03   -.176E+02 -.397E+02 0.120E+02   -.522E-01 0.843E-02 -.240E+00
   -.225E+02 -.267E+02 -.105E+04   0.581E+02 0.475E+02 0.106E+04   -.358E+02 -.207E+02 -.101E+02   -.581E-02 -.764E-02 -.201E+00
   -.109E+02 -.377E+02 -.106E+04   0.484E+02 0.495E+02 0.104E+04   -.373E+02 -.122E+02 0.252E+02   0.153E-01 -.858E-02 -.239E+00
   0.124E+03 -.969E+02 -.979E+03   -.158E+03 0.125E+03 0.991E+03   0.360E+02 -.276E+02 -.103E+02   -.578E+00 0.809E-01 -.310E+00
   -.537E+02 -.126E+02 -.111E+04   0.682E+02 0.398E+02 0.114E+04   -.144E+02 -.290E+02 -.347E+02   0.442E-01 -.545E-01 0.805E-02
   0.813E+02 0.625E+02 -.103E+04   -.994E+02 -.749E+02 0.996E+03   0.187E+02 0.119E+02 0.343E+02   -.791E-01 -.117E+00 -.197E-02
   0.288E+01 -.181E+01 0.274E+04   -.288E+01 0.176E+01 -.274E+04   -.255E-02 0.606E-01 -.116E+01   0.119E-02 -.137E-01 -.177E+00
   -.853E+00 -.223E+01 0.274E+04   0.835E+00 0.217E+01 -.274E+04   0.572E-02 0.215E-01 -.106E+01   0.193E-01 -.263E-01 -.182E+00
   -.198E+01 -.106E+01 0.274E+04   0.204E+01 0.111E+01 -.274E+04   -.333E-01 -.378E-01 -.108E+01   -.205E-01 -.116E-01 -.174E+00
   0.966E+00 -.124E+01 0.273E+04   -.891E+00 0.116E+01 -.273E+04   -.347E-01 0.209E-01 -.108E+01   -.128E-01 0.423E-01 -.157E+00
   0.131E+01 -.127E+01 0.274E+04   -.132E+01 0.112E+01 -.274E+04   0.547E-03 0.593E-01 -.110E+01   -.358E-02 0.254E-01 -.168E+00
   -.224E+01 -.205E+01 0.274E+04   0.221E+01 0.196E+01 -.273E+04   0.183E-01 -.158E-01 -.124E+01   0.165E-01 0.162E-01 -.165E+00
   0.283E+01 0.195E+01 0.274E+04   -.272E+01 -.210E+01 -.274E+04   -.340E-01 0.563E-01 -.114E+01   -.197E-01 0.153E-01 -.144E+00
   -.182E+01 0.246E+01 0.274E+04   0.176E+01 -.264E+01 -.274E+04   0.347E-01 0.669E-01 -.115E+01   0.921E-02 0.278E-01 -.144E+00
   -.995E+00 0.156E+01 0.273E+04   0.964E+00 -.160E+01 -.273E+04   -.796E-02 -.807E-02 -.114E+01   0.105E-01 0.157E-01 -.142E+00
   0.174E+01 0.718E+00 0.274E+04   -.169E+01 -.690E+00 -.273E+04   -.613E-01 0.243E-01 -.120E+01   -.117E-01 -.455E-01 -.163E+00
   0.198E+01 0.762E+00 0.274E+04   -.191E+01 -.813E+00 -.274E+04   -.609E-02 0.356E-01 -.119E+01   0.124E-01 -.257E-01 -.158E+00
   -.367E+01 0.137E+01 0.274E+04   0.360E+01 -.143E+01 -.274E+04   0.364E-01 0.644E-01 -.106E+01   -.796E-03 -.194E-01 -.159E+00
   -.114E+00 -.494E+00 0.908E+03   0.113E+00 0.373E+00 -.907E+03   0.265E-01 -.310E-01 0.630E+00   -.145E-01 0.280E-01 -.321E+00
   0.131E+02 -.147E+02 0.923E+03   -.132E+02 0.147E+02 -.922E+03   -.850E-01 0.170E+00 0.124E+00   0.343E-03 0.402E-02 -.334E+00
   -.118E+02 -.975E+01 0.925E+03   0.119E+02 0.938E+01 -.925E+03   -.203E-01 0.328E+00 0.145E+00   0.141E-01 0.485E-02 -.340E+00
   0.778E+01 0.221E+00 0.906E+03   -.781E+01 -.303E+00 -.906E+03   0.265E-01 0.120E+00 0.500E+00   -.243E-01 0.512E-01 -.323E+00
   -.766E+01 -.382E+01 0.913E+03   0.770E+01 0.384E+01 -.913E+03   0.153E-01 0.130E+00 0.473E+00   0.112E-01 0.526E-01 -.328E+00
   -.702E+00 -.987E+01 0.894E+03   0.700E+00 0.990E+01 -.893E+03   -.416E-01 0.111E+00 0.701E+00   0.132E-01 0.410E-01 -.330E+00
   0.147E+02 0.638E+01 0.910E+03   -.148E+02 -.642E+01 -.909E+03   -.116E+00 0.117E+00 0.605E+00   -.498E-02 -.272E-01 -.342E+00
   0.103E+02 0.125E+02 0.933E+03   -.104E+02 -.125E+02 -.932E+03   -.795E-01 0.438E-01 0.113E+00   -.151E-02 -.100E-01 -.335E+00
   -.249E+02 0.160E+02 0.915E+03   0.250E+02 -.161E+02 -.914E+03   0.199E+00 -.478E-01 0.557E+00   0.654E-02 -.500E-02 -.339E+00
   0.220E+02 -.622E+01 0.920E+03   -.221E+02 0.619E+01 -.920E+03   -.119E+00 0.185E+00 0.318E+00   -.767E-04 -.489E-01 -.337E+00
   -.739E+01 -.352E+01 0.942E+03   0.759E+01 0.363E+01 -.941E+03   -.127E+00 0.746E-01 -.112E+00   0.141E-01 -.471E-01 -.349E+00
   -.144E+02 0.329E+01 0.907E+03   0.144E+02 -.328E+01 -.907E+03   0.219E+00 -.559E-01 0.900E+00   -.141E-01 -.436E-01 -.341E+00
   -.304E+02 -.144E+02 -.933E+03   0.308E+02 0.148E+02 0.932E+03   -.362E+00 -.773E+00 0.750E+00   -.956E-02 0.106E-03 -.392E+00
   0.412E+02 -.152E+02 -.831E+03   -.416E+02 0.153E+02 0.831E+03   0.358E-01 -.892E-01 0.119E+01   0.123E-02 -.202E-01 -.392E+00
   -.136E+02 -.231E+02 -.754E+03   0.137E+02 0.234E+02 0.753E+03   0.302E+00 -.600E+00 0.156E+01   0.894E-02 -.168E-01 -.397E+00
   0.357E+01 -.513E+01 -.921E+03   -.407E+01 0.559E+01 0.921E+03   0.933E+00 -.538E+00 0.351E+00   -.228E-01 0.332E-01 -.392E+00
   0.711E+01 -.380E+02 -.861E+03   -.708E+01 0.385E+02 0.860E+03   -.238E+00 -.176E+00 0.103E+01   0.725E-02 0.210E-01 -.389E+00
   -.135E+02 -.537E+02 -.910E+03   0.138E+02 0.541E+02 0.910E+03   -.313E+00 -.619E-01 0.592E+00   0.166E-01 0.235E-01 -.398E+00
   0.285E+02 0.422E+02 -.926E+03   -.284E+02 -.419E+02 0.927E+03   -.488E+00 -.493E+00 -.159E+00   0.292E-03 0.346E-02 -.420E+00
   0.205E+02 0.308E+02 -.890E+03   -.203E+02 -.307E+02 0.890E+03   -.612E+00 -.525E+00 0.328E+00   -.144E-01 0.193E-01 -.413E+00
   -.496E+02 0.391E+02 -.965E+03   0.492E+02 -.389E+02 0.965E+03   0.992E+00 -.286E+00 0.362E-01   0.132E-01 0.201E-01 -.418E+00
   -.184E+01 -.131E+01 -.849E+03   0.142E+01 0.135E+01 0.849E+03   0.460E+00 0.108E+00 0.432E+00   -.300E-02 -.349E-01 -.418E+00
   0.894E+01 0.109E+02 -.802E+03   -.885E+01 -.115E+02 0.802E+03   -.105E+00 0.900E+00 0.918E+00   0.580E-02 -.230E-01 -.424E+00
   -.953E+01 0.359E+02 -.905E+03   0.993E+01 -.365E+02 0.905E+03   -.346E+00 0.483E+00 0.692E+00   -.278E-02 -.254E-01 -.418E+00
 -----------------------------------------------------------------------------------------------
   0.142E+03 0.198E+03 -.116E+02   0.597E-12 0.206E-12 0.330E-11   -.142E+03 -.198E+03 0.268E+02   0.335E-01 -.232E+00 -.153E+02
 
 
 POSITION                                       TOTAL-FORCE (eV/Angst)
 -----------------------------------------------------------------------------------
      8.23455      1.05194     15.65574        -0.244854     -0.288516      0.308398
      7.02338      6.74806     15.98434        -0.912163      0.219443     -0.042822
      4.67023      5.99986     14.28512        -0.575019     -0.208871     -0.650556
      6.46995      0.04315     14.31194         0.652079     -0.269694     -0.037634
      3.27998      0.60376     14.99047         0.138761      0.146485      0.053428
      3.32861      2.19670     14.82860         0.740059     -0.626909      0.288414
      1.76061      1.94274     20.41303        -0.032505     -0.018192     -0.309017
      8.11455      9.07444     15.58505         0.894299     -1.188113      0.687533
      5.22568      1.03489     18.41701        -0.352726     -0.249767     -0.245282
      6.36105      6.02729     17.16048        -0.598235      0.673810     -0.286150
      1.71355      4.17052     17.11076        -0.362886      0.495279      0.307681
      7.00966      3.19360     16.18864         0.001495      0.080343     -0.196862
      4.65425      1.23219     16.90035        -0.048053     -0.088289      0.024392
      5.07320      8.63563     20.72118         0.174540      0.371835      0.332265
      7.90083      6.88855     21.07216        -0.671658     -0.324154     -0.934996
      0.49203      1.92647     21.31355        -0.415040     -0.113531     -0.298300
      4.31006      0.77979     24.28787        -0.163293     -0.048288     -0.703177
      2.95490      0.90255     23.51615         1.236289     -0.402980     -0.498038
      4.20000      5.15348     21.18874        -1.258262      0.152402      0.496231
      4.72344      3.07205     23.22367         0.018773      0.107923      0.259107
      1.46655      5.33697     21.03407        -0.245661      0.459197     -0.641907
      0.21680      8.50083     24.17789         0.059375      0.301951     -0.310479
      6.12979      1.49785     20.75347        -0.653044     -0.931232      0.223541
      6.46722      2.94784     20.71279        -0.281209      1.127560      0.253305
      0.23503      6.35954     14.02023        -0.244374      0.095387      0.144925
      2.65054      8.33131     16.17294         0.005963      0.436766     -0.132774
      5.01632      0.43106     14.35357        -0.605205      0.291049     -0.294772
      4.94666      6.16810     15.70074        -0.279348      0.185844      0.691327
      1.85940      3.91673     14.26975        -0.466369     -0.271252     -0.153920
      2.91747      4.66952     15.03770        -0.148588     -0.722981      0.548154
      3.70879      4.86288     18.42055         0.248465     -0.270131     -0.080255
      0.82477      7.38610     15.04935        -0.760172     -0.782284     -0.365665
      1.88396      7.50293     18.43396        -0.029411     -0.220029     -0.116978
      3.14225      7.64901     14.89561        -0.034470      0.987661      0.131579
      4.26671      8.57714     19.50912        -0.533430      0.179187     -0.721410
      6.81345      7.06181     19.96726        -0.828321     -0.072866      0.062869
      1.54001      8.95566     18.62863        -0.220821      0.328736      0.089025
      0.48603      4.51868     18.01157         0.977062      0.033392     -0.117618
      6.63706      2.18590     17.31965         1.119635      0.525852     -1.030079
      4.57065      3.59163     18.10230        -0.015352     -0.233597     -0.068320
      8.18777      5.82655     23.06150        -0.998846      0.006606     -0.720303
      6.63509      5.52174     22.59673         1.084381      0.605337     -0.272522
      7.88287      8.69002     22.02007        -0.189052     -0.444814     -0.919985
      5.12276      4.61891     20.07464        -0.173827      0.991595      0.859701
      4.71483      3.15768     23.97211         0.060991      0.146197     -0.198608
      1.64541      4.17532     21.96174         0.237119      1.129721      0.102278
      4.34117      8.79745     22.73830         0.190415     -0.705681      0.255773
      5.11123      7.34191     22.92748        -0.660073      1.110138     -0.653865
      6.14222      6.73777     16.49499         1.903918     -0.929040      0.722274
      4.15152      5.96149     15.11726         0.163775      0.076789     -0.711241
      2.28629      3.88026     15.14848         0.789815      0.720005     -0.430262
      7.78586      0.26388     15.28539        -0.766850      1.436621     -1.059654
      3.92817      0.66939     23.38175        -1.239596      0.544525      1.143048
      7.44419      2.56952     16.79227        -0.767933     -0.184582      1.010204
      1.45941      4.70504     17.91300        -0.499199     -0.440728     -0.222654
      1.44509      2.11672     21.30935         0.370431      0.295057      0.700221
      5.03193      1.66809     17.69294         0.160208      0.387484      0.451543
      5.12484      5.12591     20.96555         1.434052     -0.938612     -0.873354
      0.49489      9.21196     23.54705        -0.886194     -0.102789     -0.016588
      6.81557      2.09573     20.46188         0.952907     -0.202365     -0.385063
      2.73829      8.52571     15.20720        -0.135431     -1.537197      0.243529
      5.59885      9.37743     13.93490         0.052867      0.166008     -0.226818
      3.90123      1.38376     15.02555        -1.158759      0.528692      0.065613
      0.02195      6.79829     14.88168         1.230479      0.756789      0.308594
      7.37205      6.20396     22.61854        -0.000816     -0.733126      1.154924
      7.76071      7.10033     20.10188         1.545520      0.337433      0.493725
      4.91497      9.17688     19.90663         0.246770     -0.399820      0.269347
      4.62674      4.50791     18.44497        -0.232610      0.112755     -0.254450
      2.19623      8.39481     18.19085         0.181569     -0.352295      0.001645
      7.57513      9.30712     22.69419         0.995500      0.398754      1.227243
      1.73353      5.18754     21.94809         0.082629     -1.829110      0.429212
      4.51410      7.89290     22.34513         0.541395     -0.608870      0.281688
      1.39098      0.80308      7.13037         0.006863      0.004965     -0.398606
      4.17294      0.80308      7.13037         0.005005     -0.067268     -0.380457
      6.95491      0.80308      7.13037         0.008083      0.003484     -0.363063
      0.00000      3.21233      7.13037         0.027202     -0.019293     -0.472480
      2.78196      3.21233      7.13037        -0.014477     -0.065063     -0.451274
      5.56393      3.21233      7.13037        -0.002284     -0.092970     -0.487564
      1.39098      5.62158      7.13037         0.061742     -0.071812     -0.370206
      4.17294      5.62158      7.13037        -0.020571     -0.086094     -0.426904
      6.95491      5.62158      7.13037        -0.029163     -0.029278     -0.260575
      0.00000      8.03084      7.13037        -0.016025      0.005438     -0.394469
      2.78196      8.03084      7.13037         0.080384     -0.041049     -0.513680
      5.56393      8.03084      7.13037        -0.040077     -0.014334     -0.412276
      0.00000      1.60617      9.40183         0.012262     -0.139994      0.509013
      2.78196      1.60617      9.40183        -0.148682      0.208274      0.247602
      5.56393      1.60617      9.40183         0.082790     -0.047765      0.534883
      1.39098      4.01542      9.40183        -0.019380      0.068008      0.448872
      4.17294      4.01542      9.40183         0.056849      0.172934      0.361822
      6.95491      4.01542      9.40183        -0.034281      0.171300      0.616522
      0.00000      6.42467      9.40183        -0.180834      0.031753      0.508620
      2.78196      6.42467      9.40183        -0.168122     -0.032429      0.071570
      5.56393      6.42467      9.40183         0.337965     -0.092469      0.473875
      1.39098      8.83392      9.40183        -0.274683      0.091813      0.319829
      4.17294      8.83392      9.40183         0.081843      0.121133      0.178322
      6.95491      8.83392      9.40183         0.189493     -0.093909      0.836835
      0.01146      0.11429     11.86556        -0.002661     -0.328620     -0.489359
      2.77839      0.05711     11.65639        -0.310874     -0.007310      0.383635
      5.54293      0.06823     11.76558         0.362773     -0.217046      0.281957
      1.33558      2.50933     11.75345         0.383642      0.000112      0.069827
      4.16627      2.45856     11.69111        -0.204594      0.326301      0.234998
      6.94809      2.46821     11.72898        -0.015902      0.353887      0.043562
      0.01630      4.90715     11.78695        -0.287649     -0.121937     -0.072168
      2.80802      4.91220     11.75588        -0.364906     -0.384181      0.108687
      5.50977      4.87398     11.84950         0.560682     -0.067633     -0.275485
      1.36702      7.29229     11.70632         0.026810      0.121749      0.188883
      4.18283      7.24673     11.63476         0.009572      0.201682      0.494594
      6.95803      7.27845     11.86174         0.039324     -0.072281     -0.585698
 -----------------------------------------------------------------------------------
    total drift:                                0.055706      0.060097     -0.098940


--------------------------------------------------------------------------------------------------------



  FREE ENERGIE OF THE ION-ELECTRON SYSTEM (eV)
  ---------------------------------------------------
  free  energy   TOTEN  =      -553.87715167 eV

  energy  without entropy=     -553.48678273  energy(sigma->0) =     -553.68196720
 


--------------------------------------------------------------------------------------------------------


    POTLOK:  cpu time    0.1415: real time    0.1417


--------------------------------------------------------------------------------------------------------


 stress matrix after NEB project (eV)
    -67.19505     -0.63860     -0.06514
     -0.63860    -66.65213      3.24945
     -0.06514      3.24945    -11.18548
  FORCES: max atom, RMS     2.238236    0.873105
  FORCE total and by dimension    9.073571    1.903918
  Stress total and by dimension   95.418748   67.195048
     LOOP+:  cpu time 3695.2886: real time 3700.8596
 vacuum level on the upper side and lower side of the slab         3.619         5.189
    4ORBIT:  cpu time    0.0000: real time    0.0000

 total amount of memory used by VASP MPI-rank0   167260. kBytes
=======================================================================

   base      :      30000. kBytes
   nonlr-proj:       4366. kBytes
   fftplans  :       6719. kBytes
   grid      :      12775. kBytes
   one-center:        108. kBytes
   wavefun   :     113292. kBytes
 
  
  
 General timing and accounting informations for this job:
 ========================================================
  
                  Total CPU time used (sec):     3715.742
                            User time (sec):     3691.508
                          System time (sec):       24.234
                         Elapsed time (sec):     3723.302
  
                   Maximum memory used (kb):      328592.
                   Average memory used (kb):           0.
  
                          Minor page faults:       471737
                          Major page faults:          186
                 Voluntary context switches:        13318
