<?xml version="1.0" encoding="ISO-8859-1"?>
<modeling>
 <generator>
  <i name="program" type="string">vasp </i>
  <i name="version" type="string">5.4.4.18Apr17-6-g9f103f2a35  </i>
  <i name="subversion" type="string">(build Feb 25 2019 10:51:38) complex            parallel </i>
  <i name="platform" type="string">LinuxIFC </i>
  <i name="date" type="string">2019 09 01 </i>
  <i name="time" type="string">10:06:57 </i>
 </generator>
 <incar>
  <i type="string" name="SYSTEM"> CuH2O</i>
  <i type="int" name="ISTART">     0</i>
  <i type="string" name="PREC">normal</i>
  <i type="int" name="NELM">   200</i>
  <i type="int" name="IBRION">    -1</i>
  <i name="EDIFF">      0.00010000</i>
  <i name="EDIFFG">      0.00000000</i>
  <i type="int" name="NSW">     0</i>
  <i name="ENCUT">    400.00000000</i>
  <i type="string" name="LREAL"> AUTO</i>
  <i type="int" name="ISMEAR">     0</i>
  <i name="SIGMA">      0.10000000</i>
  <i type="logical" name="LWAVE"> F  </i>
  <i type="logical" name="LCHARG"> F  </i>
  <i type="logical" name="LVHAR"> T  </i>
  <i type="logical" name="LAECHG"> T  </i>
  <v type="int" name="KPOINT_BSE">    -1     0     0     0</v>
  <i type="int" name="NELM">   200</i>
  <i type="string" name="GGA"> RP</i>
  <i type="logical" name="LDIPOL"> T  </i>
  <i type="int" name="IDIPOL">     3</i>
  <v name="DIPOL">      0.50000000      0.50000000      0.50000000</v>
 </incar>
 <structure name="primitive_cell" >
  <crystal>
   <varray name="basis" >
    <v>       8.34588864       0.00000000       0.00000000 </v>
    <v>       0.00000000       9.63700211       0.00000000 </v>
    <v>       0.00000000       0.00000000      32.54292636 </v>
   </varray>
   <i name="volume">   2617.40629817 </i>
   <varray name="rec_basis" >
    <v>       0.11981948       0.00000000       0.00000000 </v>
    <v>       0.00000000       0.10376671       0.00000000 </v>
    <v>       0.00000000       0.00000000       0.03072864 </v>
   </varray>
  </crystal>
  <varray name="positions" >
   <v>      -0.01334113       0.10915620       0.48107975 </v>
   <v>      -0.06710203       0.02738210       0.46969946 </v>
   <v>      -0.02771917      -0.05837491       0.47890743 </v>
   <v>      -0.10804065       0.26663069      -0.48399628 </v>
   <v>      -0.22477343       0.00447804       0.43978642 </v>
   <v>      -0.16010573       0.33138912       0.49745485 </v>
   <v>      -0.20475052       0.22682321      -0.46779071 </v>
   <v>      -0.32914858      -0.02693458       0.42820054 </v>
   <v>       0.39300588       0.06265051       0.46063674 </v>
   <v>       0.09882314      -0.23356884       0.46244609 </v>
   <v>      -0.39894745       0.04472976       0.44106586 </v>
   <v>       0.32810030      -0.11531523       0.46729665 </v>
   <v>       0.31758664      -0.13548784       0.49697259 </v>
   <v>       0.39883220       0.22794472       0.45566283 </v>
   <v>       0.27394265       0.40264137       0.46549210 </v>
   <v>       0.22279216       0.40642645       0.43849016 </v>
   <v>      -0.44232966       0.12785979      -0.48067512 </v>
   <v>       0.18452375      -0.07070082      -0.42756744 </v>
   <v>      -0.39707698       0.17309174      -0.45632008 </v>
   <v>       0.20531696       0.43276089      -0.47420947 </v>
   <v>       0.00137279       0.01185954       0.36461254 </v>
   <v>       0.00263050      -0.29456411       0.45729388 </v>
   <v>       0.46744308       0.14358818       0.46171493 </v>
   <v>      -0.37386183       0.10738664      -0.43407029 </v>
   <v>       0.26315138      -0.12889774      -0.44101993 </v>
   <v>      -0.15846233      -0.29977615       0.49117703 </v>
   <v>       0.05823592       0.46888818      -0.44652881 </v>
   <v>      -0.16748307       0.25611789       0.36041563 </v>
   <v>       0.16002884       0.26038513       0.36116747 </v>
   <v>       0.37650262      -0.20628784       0.45772195 </v>
   <v>      -0.26404223      -0.30084343      -0.49313142 </v>
   <v>       0.17486579       0.48822684      -0.44955789 </v>
   <v>       0.02816163      -0.34009162       0.43082258 </v>
   <v>       0.22573518      -0.22144591      -0.43354935 </v>
   <v>       0.34956925       0.48454055       0.46208809 </v>
   <v>      -0.33584860       0.00707981       0.36154021 </v>
   <v>       0.33290569       0.00592647       0.35818502 </v>
   <v>      -0.45234758       0.37269178      -0.44374086 </v>
   <v>      -0.18336231       0.21746727      -0.37123403 </v>
   <v>       0.21095486       0.20159152      -0.37273527 </v>
   <v>      -0.23782183      -0.37456779      -0.47268167 </v>
   <v>      -0.16629246      -0.24473950       0.36449520 </v>
   <v>       0.16379605      -0.24330350       0.35971949 </v>
   <v>       0.00195286      -0.49080144       0.36219696 </v>
   <v>      -0.26553231       0.15542746      -0.36227408 </v>
   <v>      -0.40729329      -0.35995705       0.48246259 </v>
   <v>      -0.41109082      -0.04774574      -0.38829632 </v>
   <v>      -0.22510094       0.30588743      -0.36352410 </v>
   <v>      -0.44562686       0.46777121      -0.43321101 </v>
   <v>      -0.07011559      -0.26322177      -0.38229658 </v>
   <v>       0.05895447       0.19990384      -0.34506357 </v>
   <v>      -0.18361640      -0.26721931      -0.38643325 </v>
   <v>       0.49919996       0.25511619       0.35925190 </v>
   <v>      -0.48876564      -0.10997887      -0.40051107 </v>
   <v>       0.17315020       0.21964525      -0.34519268 </v>
   <v>      -0.33982235      -0.49424321       0.36411895 </v>
   <v>      -0.44041522      -0.37741407       0.43896252 </v>
   <v>       0.44438488      -0.49539467      -0.43396133 </v>
   <v>       0.33645575      -0.49027731       0.36124221 </v>
   <v>       0.49743354      -0.38139614       0.46453284 </v>
   <v>       0.00000000       0.16666667       0.28890555 </v>
   <v>      -0.39213241      -0.10390945      -0.36326615 </v>
   <v>      -0.38619396       0.47928932      -0.38313341 </v>
   <v>      -0.05332636      -0.28519733      -0.35248124 </v>
   <v>      -0.16666667      -0.08333333       0.28890555 </v>
   <v>      -0.49881507      -0.24803030       0.35752041 </v>
   <v>      -0.05547858      -0.09826528      -0.32335314 </v>
   <v>       0.16666667      -0.08333333       0.28890555 </v>
   <v>      -0.33333333       0.16666667       0.28890555 </v>
   <v>       0.33333333       0.16666667       0.28890555 </v>
   <v>      -0.16666667       0.41666667       0.28890555 </v>
   <v>       0.17572115      -0.44620004      -0.35365154 </v>
   <v>       0.16666667       0.41666667       0.28890555 </v>
   <v>      -0.09235154      -0.03423082      -0.30263821 </v>
   <v>       0.19715267       0.43325924      -0.32514553 </v>
   <v>      -0.38594477      -0.46810092      -0.35575715 </v>
   <v>       0.00000000      -0.33333333       0.28890555 </v>
   <v>      -0.50000000      -0.08333333       0.28890555 </v>
   <v>       0.20771122      -0.46170624      -0.32556492 </v>
   <v>      -0.49675865      -0.46524064      -0.34889880 </v>
   <v>      -0.50000000       0.41666667       0.28890555 </v>
   <v>      -0.33333333      -0.33333333       0.28890555 </v>
   <v>       0.05929758      -0.04410500      -0.27643122 </v>
   <v>       0.33333333      -0.33333333       0.28890555 </v>
   <v>      -0.45912326      -0.18097948      -0.31336458 </v>
   <v>      -0.47984306      -0.08711743      -0.30128278 </v>
   <v>      -0.11668507      -0.35623524      -0.30496298 </v>
   <v>      -0.20498705      -0.42702724      -0.30563300 </v>
   <v>       0.35405427       0.09365420      -0.27738071 </v>
   <v>      -0.43404028       0.31877617      -0.28636820 </v>
   <v>      -0.38757451      -0.23815464      -0.29546972 </v>
   <v>      -0.16666667       0.08333333       0.21910656 </v>
   <v>       0.16666667       0.08333333       0.21910656 </v>
   <v>       0.47067110       0.06946015      -0.28151050 </v>
   <v>       0.00000000       0.33333333       0.21910656 </v>
   <v>       0.02597744      -0.11789709      -0.25704620 </v>
   <v>      -0.01894533      -0.39539764      -0.29135134 </v>
   <v>       0.00000000      -0.16666667       0.21910656 </v>
   <v>      -0.33333333       0.33333333       0.21910656 </v>
   <v>       0.33333333       0.33333333       0.21910656 </v>
   <v>      -0.43507124       0.32766190      -0.26336958 </v>
   <v>      -0.33333333      -0.16666667       0.21910656 </v>
   <v>       0.33333333      -0.16666667       0.21910656 </v>
   <v>      -0.50000000       0.08333333       0.21910656 </v>
   <v>      -0.48357108       0.08091628      -0.25366657 </v>
   <v>      -0.16666667      -0.41666667       0.21910656 </v>
   <v>       0.16666667      -0.41666667       0.21910656 </v>
   <v>      -0.50000000      -0.41666667       0.21910656 </v>
  </varray>
 </structure>
 <varray name="primitive_index" >
  <v type="int" >        1 </v>
  <v type="int" >       52 </v>
  <v type="int" >        8 </v>
  <v type="int" >       54 </v>
  <v type="int" >        4 </v>
  <v type="int" >       12 </v>
  <v type="int" >       39 </v>
  <v type="int" >       62 </v>
  <v type="int" >        5 </v>
  <v type="int" >       32 </v>
  <v type="int" >       27 </v>
  <v type="int" >       61 </v>
  <v type="int" >       26 </v>
  <v type="int" >        6 </v>
  <v type="int" >       51 </v>
  <v type="int" >       29 </v>
  <v type="int" >       13 </v>
  <v type="int" >       37 </v>
  <v type="int" >       57 </v>
  <v type="int" >       11 </v>
  <v type="int" >       97 </v>
  <v type="int" >       64 </v>
  <v type="int" >       63 </v>
  <v type="int" >        9 </v>
  <v type="int" >       69 </v>
  <v type="int" >        2 </v>
  <v type="int" >       38 </v>
  <v type="int" >      102 </v>
  <v type="int" >      100 </v>
  <v type="int" >       34 </v>
  <v type="int" >       49 </v>
  <v type="int" >       55 </v>
  <v type="int" >       25 </v>
  <v type="int" >       33 </v>
  <v type="int" >       30 </v>
  <v type="int" >       99 </v>
  <v type="int" >       98 </v>
  <v type="int" >       40 </v>
  <v type="int" >       60 </v>
  <v type="int" >        7 </v>
  <v type="int" >       10 </v>
  <v type="int" >      108 </v>
  <v type="int" >      106 </v>
  <v type="int" >      103 </v>
  <v type="int" >       23 </v>
  <v type="int" >       28 </v>
  <v type="int" >       67 </v>
  <v type="int" >       24 </v>
  <v type="int" >       68 </v>
  <v type="int" >       66 </v>
  <v type="int" >       16 </v>
  <v type="int" >       36 </v>
  <v type="int" >      101 </v>
  <v type="int" >       35 </v>
  <v type="int" >       56 </v>
  <v type="int" >      105 </v>
  <v type="int" >        3 </v>
  <v type="int" >       31 </v>
  <v type="int" >      104 </v>
  <v type="int" >       50 </v>
  <v type="int" >       85 </v>
  <v type="int" >       14 </v>
  <v type="int" >       44 </v>
  <v type="int" >       15 </v>
  <v type="int" >       96 </v>
  <v type="int" >      107 </v>
  <v type="int" >       43 </v>
  <v type="int" >       94 </v>
  <v type="int" >       87 </v>
  <v type="int" >       86 </v>
  <v type="int" >       90 </v>
  <v type="int" >       21 </v>
  <v type="int" >       88 </v>
  <v type="int" >       70 </v>
  <v type="int" >       46 </v>
  <v type="int" >       58 </v>
  <v type="int" >       91 </v>
  <v type="int" >       95 </v>
  <v type="int" >       71 </v>
  <v type="int" >       19 </v>
  <v type="int" >       89 </v>
  <v type="int" >       93 </v>
  <v type="int" >       59 </v>
  <v type="int" >       92 </v>
  <v type="int" >       72 </v>
  <v type="int" >       47 </v>
  <v type="int" >       65 </v>
  <v type="int" >       42 </v>
  <v type="int" >       18 </v>
  <v type="int" >       20 </v>
  <v type="int" >       48 </v>
  <v type="int" >       75 </v>
  <v type="int" >       73 </v>
  <v type="int" >       53 </v>
  <v type="int" >       76 </v>
  <v type="int" >       22 </v>
  <v type="int" >       41 </v>
  <v type="int" >       82 </v>
  <v type="int" >       78 </v>
  <v type="int" >       77 </v>
  <v type="int" >       45 </v>
  <v type="int" >       84 </v>
  <v type="int" >       83 </v>
  <v type="int" >       74 </v>
  <v type="int" >       17 </v>
  <v type="int" >       81 </v>
  <v type="int" >       79 </v>
  <v type="int" >       80 </v>
 </varray>
 <kpoints>
  <generation param="Gamma">
   <v type="int" name="divisions">       4        3        1 </v>
   <v name="usershift">      0.00000000       0.00000000       0.00000000 </v>
   <v name="genvec1">      0.25000000       0.00000000       0.00000000 </v>
   <v name="genvec2">      0.00000000       0.33333333       0.00000000 </v>
   <v name="genvec3">      0.00000000       0.00000000       1.00000000 </v>
   <v name="shift">      0.00000000       0.00000000       0.00000000 </v>
  </generation>
  <varray name="kpointlist" >
   <v>       0.00000000       0.00000000       0.00000000 </v>
   <v>       0.25000000       0.00000000       0.00000000 </v>
   <v>       0.50000000       0.00000000       0.00000000 </v>
   <v>       0.00000000       0.33333333       0.00000000 </v>
   <v>       0.25000000       0.33333333       0.00000000 </v>
   <v>       0.50000000       0.33333333       0.00000000 </v>
   <v>      -0.25000000       0.33333333       0.00000000 </v>
  </varray>
  <varray name="weights" >
   <v>       0.08333333 </v>
   <v>       0.16666667 </v>
   <v>       0.08333333 </v>
   <v>       0.16666667 </v>
   <v>       0.16666667 </v>
   <v>       0.16666667 </v>
   <v>       0.16666667 </v>
  </varray>
 </kpoints>
 <parameters>
  <separator name="general" >
   <i type="string" name="SYSTEM">CuH2O</i>
   <i type="logical" name="LCOMPAT"> F  </i>
  </separator>
  <separator name="electronic" >
   <i type="string" name="PREC">normal</i>
   <i name="ENMAX">    400.00000000</i>
   <i name="ENAUG">    605.39200000</i>
   <i name="EDIFF">      0.00010000</i>
   <i type="int" name="IALGO">    38</i>
   <i type="int" name="IWAVPR">    10</i>
   <i type="int" name="NBANDS">   331</i>
   <i name="NELECT">    552.00000000</i>
   <i type="int" name="TURBO">     0</i>
   <i type="int" name="IRESTART">     0</i>
   <i type="int" name="NREBOOT">     0</i>
   <i type="int" name="NMIN">     0</i>
   <i name="EREF">      0.00000000</i>
   <separator name="electronic smearing" >
    <i type="int" name="ISMEAR">     0</i>
    <i name="SIGMA">      0.10000000</i>
    <i name="KSPACING">      0.50000000</i>
    <i type="logical" name="KGAMMA"> T  </i>
   </separator>
   <separator name="electronic projectors" >
    <i type="logical" name="LREAL"> T  </i>
    <v name="ROPT">     -0.00050000     -0.00050000     -0.00050000</v>
    <i type="int" name="LMAXPAW">  -100</i>
    <i type="int" name="LMAXMIX">     2</i>
    <i type="logical" name="NLSPLINE"> F  </i>
   </separator>
   <separator name="electronic startup" >
    <i type="int" name="ISTART">     0</i>
    <i type="int" name="ICHARG">     2</i>
    <i type="int" name="INIWAV">     1</i>
   </separator>
   <separator name="electronic spin" >
    <i type="int" name="ISPIN">     1</i>
    <i type="logical" name="LNONCOLLINEAR"> F  </i>
    <v name="MAGMOM">      1.00000000      1.00000000      1.00000000      1.00000000      1.00000000      1.00000000      1.00000000      1.00000000      1.00000000      1.00000000      1.00000000      1.00000000      1.00000000      1.00000000      1.00000000      1.00000000      1.00000000      1.00000000      1.00000000      1.00000000
      1.00000000      1.00000000      1.00000000      1.00000000      1.00000000      1.00000000      1.00000000      1.00000000      1.00000000      1.00000000      1.00000000      1.00000000      1.00000000      1.00000000      1.00000000      1.00000000      1.00000000      1.00000000      1.00000000      1.00000000
      1.00000000      1.00000000      1.00000000      1.00000000      1.00000000      1.00000000      1.00000000      1.00000000      1.00000000      1.00000000      1.00000000      1.00000000      1.00000000      1.00000000      1.00000000      1.00000000      1.00000000      1.00000000      1.00000000      1.00000000
      1.00000000      1.00000000      1.00000000      1.00000000      1.00000000      1.00000000      1.00000000      1.00000000      1.00000000      1.00000000      1.00000000      1.00000000      1.00000000      1.00000000      1.00000000      1.00000000      1.00000000      1.00000000      1.00000000      1.00000000
      1.00000000      1.00000000      1.00000000      1.00000000      1.00000000      1.00000000      1.00000000      1.00000000      1.00000000      1.00000000      1.00000000      1.00000000      1.00000000      1.00000000      1.00000000      1.00000000      1.00000000      1.00000000      1.00000000      1.00000000
      1.00000000      1.00000000      1.00000000      1.00000000      1.00000000      1.00000000      1.00000000      1.00000000</v>
    <i name="NUPDOWN">     -1.00000000</i>
    <i type="logical" name="LSORBIT"> F  </i>
    <v name="SAXIS">      0.00000000      0.00000000      1.00000000</v>
    <i type="logical" name="LSPIRAL"> F  </i>
    <v name="QSPIRAL">      0.00000000      0.00000000      0.00000000</v>
    <i type="logical" name="LZEROZ"> F  </i>
   </separator>
   <separator name="electronic exchange-correlation" >
    <i type="logical" name="LASPH"> F  </i>
    <i type="logical" name="LMETAGGA"> F  </i>
   </separator>
   <separator name="electronic convergence" >
    <i type="int" name="NELM">   200</i>
    <i type="int" name="NELMDL">    -5</i>
    <i type="int" name="NELMIN">     2</i>
    <i name="ENINI">    400.00000000</i>
    <separator name="electronic convergence detail" >
     <i type="logical" name="LDIAG"> T  </i>
     <i type="logical" name="LSUBROT"> F  </i>
     <i name="WEIMIN">      0.00000000</i>
     <i name="EBREAK">      0.00000000</i>
     <i name="DEPER">      0.30000000</i>
     <i type="int" name="NRMM">     4</i>
     <i name="TIME">      0.40000000</i>
    </separator>
   </separator>
   <separator name="electronic mixer" >
    <i name="AMIX">      0.40000000</i>
    <i name="BMIX">      1.00000000</i>
    <i name="AMIN">      0.10000000</i>
    <i name="AMIX_MAG">      1.60000000</i>
    <i name="BMIX_MAG">      1.00000000</i>
    <separator name="electronic mixer details" >
     <i type="int" name="IMIX">     4</i>
     <i type="logical" name="MIXFIRST"> F  </i>
     <i type="int" name="MAXMIX">   -45</i>
     <i name="WC">    100.00000000</i>
     <i type="int" name="INIMIX">     1</i>
     <i type="int" name="MIXPRE">     1</i>
     <i type="int" name="MREMOVE">     5</i>
    </separator>
   </separator>
   <separator name="electronic dipolcorrection" >
    <i type="logical" name="LDIPOL"> T  </i>
    <i type="logical" name="LMONO"> F  </i>
    <i type="int" name="IDIPOL">     3</i>
    <i name="EPSILON">      1.00000000</i>
    <v name="DIPOL">      0.50000000      0.50000000      0.50000000</v>
    <i name="EFIELD">      0.00000000</i>
   </separator>
  </separator>
  <separator name="grids" >
   <i type="int" name="NGX">    42</i>
   <i type="int" name="NGY">    48</i>
   <i type="int" name="NGZ">   160</i>
   <i type="int" name="NGXF">    84</i>
   <i type="int" name="NGYF">    96</i>
   <i type="int" name="NGZF">   320</i>
   <i type="logical" name="ADDGRID"> F  </i>
  </separator>
  <separator name="ionic" >
   <i type="int" name="NSW">     0</i>
   <i type="int" name="IBRION">    -1</i>
   <i type="int" name="MDALGO">     0</i>
   <i type="int" name="ISIF">     2</i>
   <i name="PSTRESS">      0.00000000</i>
   <i name="EDIFFG">      0.00000000</i>
   <i type="int" name="NFREE">     0</i>
   <i name="POTIM">      0.50000000</i>
   <i name="SMASS">     -3.00000000</i>
   <i name="SCALEE">      1.00000000</i>
  </separator>
  <separator name="ionic md" >
   <i name="TEBEG">      0.00010000</i>
   <i name="TEEND">      0.00010000</i>
   <i type="int" name="NBLOCK">     1</i>
   <i type="int" name="KBLOCK">     1</i>
   <i type="int" name="NPACO">   256</i>
   <i name="APACO">     16.00000000</i>
  </separator>
  <separator name="symmetry" >
   <i type="int" name="ISYM">     2</i>
   <i name="SYMPREC">      0.00001000</i>
  </separator>
  <separator name="dos" >
   <i type="int" name="LORBIT">     0</i>
   <v name="RWIGS">     -1.00000000     -1.00000000     -1.00000000</v>
   <i type="int" name="NEDOS">   301</i>
   <i name="EMIN">     10.00000000</i>
   <i name="EMAX">    -10.00000000</i>
   <i name="EFERMI">      0.00000000</i>
  </separator>
  <separator name="writing" >
   <i type="int" name="NWRITE">     2</i>
   <i type="logical" name="LWAVE"> F  </i>
   <i type="logical" name="LDOWNSAMPLE"> F  </i>
   <i type="logical" name="LCHARG"> F  </i>
   <i type="logical" name="LPARD"> F  </i>
   <i type="logical" name="LVTOT"> F  </i>
   <i type="logical" name="LVHAR"> T  </i>
   <i type="logical" name="LELF"> F  </i>
   <i type="logical" name="LOPTICS"> F  </i>
   <v name="STM">      0.00000000      0.00000000      0.00000000      0.00000000      0.00000000      0.00000000      0.00000000</v>
  </separator>
  <separator name="performance" >
   <i type="int" name="NPAR">     1</i>
   <i type="int" name="NSIM">     4</i>
   <i type="int" name="NBLK">    -1</i>
   <i type="logical" name="LPLANE"> T  </i>
   <i type="logical" name="LSCALAPACK"> T  </i>
   <i type="logical" name="LSCAAWARE"> F  </i>
   <i type="logical" name="LSCALU"> F  </i>
   <i type="logical" name="LASYNC"> F  </i>
   <i type="logical" name="LORBITALREAL"> F  </i>
  </separator>
  <separator name="miscellaneous" >
   <i type="int" name="IDIOT">     3</i>
   <i type="int" name="ISPECIAL">     0</i>
   <i type="logical" name="LMUSIC"> F  </i>
   <v name="POMASS">      1.00000000     16.00000000    195.08000000</v>
   <v name="DARWINR">      0.00000000      0.00000000      0.00000000</v>
   <v name="DARWINV">      1.00000000      1.00000000      1.00000000</v>
   <i type="logical" name="LCORR"> T  </i>
  </separator>
  <i type="logical" name="GGA_COMPAT"> T  </i>
  <i type="logical" name="LBERRY"> F  </i>
  <i type="int" name="ICORELEVEL">     0</i>
  <i type="logical" name="LDAU"> F  </i>
  <i type="int" name="I_CONSTRAINED_M">     0</i>
  <separator name="electronic exchange-correlation" >
   <i type="string" name="GGA">RP</i>
   <i type="int" name="VOSKOWN">     0</i>
   <i type="logical" name="LHFCALC"> F  </i>
   <i type="string" name="PRECFOCK"></i>
   <i type="logical" name="LSYMGRAD"> F  </i>
   <i type="logical" name="LHFONE"> F  </i>
   <i type="logical" name="LRHFCALC"> F  </i>
   <i type="logical" name="LTHOMAS"> F  </i>
   <i type="logical" name="LMODELHF"> F  </i>
   <i name="ENCUT4O">     -1.00000000</i>
   <i type="int" name="EXXOEP">     0</i>
   <i type="int" name="FOURORBIT">     0</i>
   <i name="AEXX">      0.00000000</i>
   <i name="HFALPHA">      0.00000000</i>
   <i name="MCALPHA">      0.00000000</i>
   <i name="ALDAX">      1.00000000</i>
   <i name="AGGAX">      1.00000000</i>
   <i name="ALDAC">      1.00000000</i>
   <i name="AGGAC">      1.00000000</i>
   <i type="int" name="NKREDX">     1</i>
   <i type="int" name="NKREDY">     1</i>
   <i type="int" name="NKREDZ">     1</i>
   <i type="logical" name="SHIFTRED"> F  </i>
   <i type="logical" name="ODDONLY"> F  </i>
   <i type="logical" name="EVENONLY"> F  </i>
   <i type="int" name="LMAXFOCK">     0</i>
   <i type="int" name="NMAXFOCKAE">     0</i>
   <i type="logical" name="LFOCKAEDFT"> F  </i>
   <i name="HFSCREEN">      0.00000000</i>
   <i name="HFSCREENC">      0.00000000</i>
   <i type="int" name="NBANDSGWLOW">     0</i>
  </separator>
  <separator name="vdW DFT" >
   <i type="logical" name="LUSE_VDW"> F  </i>
   <i name="Zab_VDW">     -0.84910000</i>
   <i name="PARAM1">      0.12340000</i>
   <i name="PARAM2">      1.00000000</i>
   <i name="PARAM3">      0.00000000</i>
  </separator>
  <separator name="model GW" >
   <i type="int" name="MODEL_GW">     0</i>
   <i name="MODEL_EPS0">     14.54114610</i>
   <i name="MODEL_ALPHA">      1.00000000</i>
  </separator>
  <separator name="linear response parameters" >
   <i type="logical" name="LEPSILON"> F  </i>
   <i type="logical" name="LRPA"> F  </i>
   <i type="logical" name="LNABLA"> F  </i>
   <i type="logical" name="LVEL"> F  </i>
   <i type="int" name="KINTER">     0</i>
   <i name="CSHIFT">      0.10000000</i>
   <i name="OMEGAMAX">     -1.00000000</i>
   <i name="DEG_THRESHOLD">      0.00200000</i>
   <i name="RTIME">     -0.10000000</i>
   <i name="WPLASMAI">      0.00000000</i>
   <v name="DFIELD">      0.00000000      0.00000000      0.00000000</v>
   <v name="WPLASMA">      0.00000000      0.00000000      0.00000000      0.00000000      0.00000000      0.00000000      0.00000000      0.00000000      0.00000000</v>
  </separator>
  <separator name="orbital magnetization" >
   <i type="logical" name="NUCIND"> F  </i>
   <v name="MAGPOS">      0.00000000      0.00000000      0.00000000</v>
   <i type="logical" name="LNICSALL"> T  </i>
   <i type="logical" name="ORBITALMAG"> F  </i>
   <i type="logical" name="LMAGBLOCH"> F  </i>
   <i type="logical" name="LCHIMAG"> F  </i>
   <i type="logical" name="LGAUGE"> T  </i>
   <i type="int" name="MAGATOM">     0</i>
   <v name="MAGDIPOL">      0.00000000      0.00000000      0.00000000</v>
   <v name="AVECCONST">      0.00000000      0.00000000      0.00000000</v>
  </separator>
  <separator name="response functions" >
   <i type="logical" name="LADDER"> F  </i>
   <i type="logical" name="LRPAFORCE"> F  </i>
   <i type="logical" name="LFXC"> F  </i>
   <i type="logical" name="LHARTREE"> T  </i>
   <i type="int" name="IBSE">     0</i>
   <v type="int" name="KPOINT">    -1     0     0     0</v>
   <i type="logical" name="LTCTE"> F  </i>
   <i type="logical" name="LTETE"> F  </i>
   <i type="logical" name="LTRIPLET"> F  </i>
   <i type="logical" name="LFXCEPS"> F  </i>
   <i type="logical" name="LFXHEG"> F  </i>
   <i type="int" name="NATURALO">     2</i>
   <i type="logical" name="L2ORDER"> F  </i>
   <i type="logical" name="LMP2LT"> F  </i>
   <i type="logical" name="LUSEW"> F  </i>
   <i name="ENCUTGW">     -2.00000000</i>
   <i name="ENCUTGWSOFT">     -2.00000000</i>
   <i name="ENCUTLF">     -1.00000000</i>
   <i type="int" name="LMAXMP2">    -1</i>
   <i name="SCISSOR">      0.00000000</i>
   <i type="int" name="NOMEGA">     0</i>
   <i type="int" name="NOMEGAR">     0</i>
   <i type="int" name="NBANDSGW">    -1</i>
   <i type="int" name="NBANDSO">    -1</i>
   <i type="int" name="NBANDSV">    -1</i>
   <i type="int" name="NELM">   200</i>
   <i type="int" name="NELMHF">     1</i>
   <i type="int" name="DIM">     3</i>
   <i type="int" name="ANTIRES">     0</i>
   <i name="OMEGAMAX">    -30.00000000</i>
   <i name="OMEGAMIN">    -30.00000000</i>
   <i name="OMEGATL">   -200.00000000</i>
   <i type="int" name="OMEGAGRID">   140</i>
   <i name="CSHIFT">     -0.10000000</i>
   <i type="logical" name="SELFENERGY"> F  </i>
   <i type="logical" name="LSPECTRAL"> F  </i>
   <i type="logical" name="LSPECTRALGW"> F  </i>
   <i type="logical" name="LSINGLES"> F  </i>
   <i type="logical" name="LFERMIGW"> F  </i>
   <i type="logical" name="ODDONLYGW"> F  </i>
   <i type="logical" name="EVENONLYGW"> F  </i>
   <i type="int" name="NKREDLFX">     1</i>
   <i type="int" name="NKREDLFY">     1</i>
   <i type="int" name="NKREDLFZ">     1</i>
   <i type="int" name="MAXMEM">  2800</i>
   <i type="int" name="TELESCOPE">     0</i>
   <i type="int" name="TAUPAR">     1</i>
   <i type="int" name="OMEGAPAR">    -1</i>
   <i name="LAMBDA">      1.00000000</i>
  </separator>
  <separator name="External order field" >
   <i name="OFIELD_KAPPA">      0.00000000</i>
   <v name="OFIELD_K">      0.00000000      0.00000000      0.00000000</v>
   <i name="OFIELD_Q6_NEAR">      0.00000000</i>
   <i name="OFIELD_Q6_FAR">      0.00000000</i>
   <i name="OFIELD_A">      0.00000000</i>
  </separator>
  <separator name="solvation model" >
   <i type="logical" name="LSOL"> F  </i>
  </separator>
 </parameters>
 <atominfo>
  <atoms>     108 </atoms>
  <types>       3 </types>
  <array name="atoms" >
   <dimension dim="1">ion</dimension>
   <field type="string">element</field>
   <field type="int">atomtype</field>
   <set>
    <rc><c>H </c><c>   1</c></rc>
    <rc><c>H </c><c>   1</c></rc>
    <rc><c>H </c><c>   1</c></rc>
    <rc><c>H </c><c>   1</c></rc>
    <rc><c>H </c><c>   1</c></rc>
    <rc><c>H </c><c>   1</c></rc>
    <rc><c>H </c><c>   1</c></rc>
    <rc><c>H </c><c>   1</c></rc>
    <rc><c>H </c><c>   1</c></rc>
    <rc><c>H </c><c>   1</c></rc>
    <rc><c>H </c><c>   1</c></rc>
    <rc><c>H </c><c>   1</c></rc>
    <rc><c>H </c><c>   1</c></rc>
    <rc><c>H </c><c>   1</c></rc>
    <rc><c>H </c><c>   1</c></rc>
    <rc><c>H </c><c>   1</c></rc>
    <rc><c>H </c><c>   1</c></rc>
    <rc><c>H </c><c>   1</c></rc>
    <rc><c>H </c><c>   1</c></rc>
    <rc><c>H </c><c>   1</c></rc>
    <rc><c>H </c><c>   1</c></rc>
    <rc><c>H </c><c>   1</c></rc>
    <rc><c>H </c><c>   1</c></rc>
    <rc><c>H </c><c>   1</c></rc>
    <rc><c>H </c><c>   1</c></rc>
    <rc><c>H </c><c>   1</c></rc>
    <rc><c>H </c><c>   1</c></rc>
    <rc><c>H </c><c>   1</c></rc>
    <rc><c>H </c><c>   1</c></rc>
    <rc><c>H </c><c>   1</c></rc>
    <rc><c>H </c><c>   1</c></rc>
    <rc><c>H </c><c>   1</c></rc>
    <rc><c>H </c><c>   1</c></rc>
    <rc><c>H </c><c>   1</c></rc>
    <rc><c>H </c><c>   1</c></rc>
    <rc><c>H </c><c>   1</c></rc>
    <rc><c>H </c><c>   1</c></rc>
    <rc><c>H </c><c>   1</c></rc>
    <rc><c>H </c><c>   1</c></rc>
    <rc><c>H </c><c>   1</c></rc>
    <rc><c>H </c><c>   1</c></rc>
    <rc><c>H </c><c>   1</c></rc>
    <rc><c>H </c><c>   1</c></rc>
    <rc><c>H </c><c>   1</c></rc>
    <rc><c>H </c><c>   1</c></rc>
    <rc><c>H </c><c>   1</c></rc>
    <rc><c>H </c><c>   1</c></rc>
    <rc><c>H </c><c>   1</c></rc>
    <rc><c>O </c><c>   2</c></rc>
    <rc><c>O </c><c>   2</c></rc>
    <rc><c>O </c><c>   2</c></rc>
    <rc><c>O </c><c>   2</c></rc>
    <rc><c>O </c><c>   2</c></rc>
    <rc><c>O </c><c>   2</c></rc>
    <rc><c>O </c><c>   2</c></rc>
    <rc><c>O </c><c>   2</c></rc>
    <rc><c>O </c><c>   2</c></rc>
    <rc><c>O </c><c>   2</c></rc>
    <rc><c>O </c><c>   2</c></rc>
    <rc><c>O </c><c>   2</c></rc>
    <rc><c>O </c><c>   2</c></rc>
    <rc><c>O </c><c>   2</c></rc>
    <rc><c>O </c><c>   2</c></rc>
    <rc><c>O </c><c>   2</c></rc>
    <rc><c>O </c><c>   2</c></rc>
    <rc><c>O </c><c>   2</c></rc>
    <rc><c>O </c><c>   2</c></rc>
    <rc><c>O </c><c>   2</c></rc>
    <rc><c>O </c><c>   2</c></rc>
    <rc><c>O </c><c>   2</c></rc>
    <rc><c>O </c><c>   2</c></rc>
    <rc><c>O </c><c>   2</c></rc>
    <rc><c>Pt</c><c>   3</c></rc>
    <rc><c>Pt</c><c>   3</c></rc>
    <rc><c>Pt</c><c>   3</c></rc>
    <rc><c>Pt</c><c>   3</c></rc>
    <rc><c>Pt</c><c>   3</c></rc>
    <rc><c>Pt</c><c>   3</c></rc>
    <rc><c>Pt</c><c>   3</c></rc>
    <rc><c>Pt</c><c>   3</c></rc>
    <rc><c>Pt</c><c>   3</c></rc>
    <rc><c>Pt</c><c>   3</c></rc>
    <rc><c>Pt</c><c>   3</c></rc>
    <rc><c>Pt</c><c>   3</c></rc>
    <rc><c>Pt</c><c>   3</c></rc>
    <rc><c>Pt</c><c>   3</c></rc>
    <rc><c>Pt</c><c>   3</c></rc>
    <rc><c>Pt</c><c>   3</c></rc>
    <rc><c>Pt</c><c>   3</c></rc>
    <rc><c>Pt</c><c>   3</c></rc>
    <rc><c>Pt</c><c>   3</c></rc>
    <rc><c>Pt</c><c>   3</c></rc>
    <rc><c>Pt</c><c>   3</c></rc>
    <rc><c>Pt</c><c>   3</c></rc>
    <rc><c>Pt</c><c>   3</c></rc>
    <rc><c>Pt</c><c>   3</c></rc>
    <rc><c>Pt</c><c>   3</c></rc>
    <rc><c>Pt</c><c>   3</c></rc>
    <rc><c>Pt</c><c>   3</c></rc>
    <rc><c>Pt</c><c>   3</c></rc>
    <rc><c>Pt</c><c>   3</c></rc>
    <rc><c>Pt</c><c>   3</c></rc>
    <rc><c>Pt</c><c>   3</c></rc>
    <rc><c>Pt</c><c>   3</c></rc>
    <rc><c>Pt</c><c>   3</c></rc>
    <rc><c>Pt</c><c>   3</c></rc>
    <rc><c>Pt</c><c>   3</c></rc>
    <rc><c>Pt</c><c>   3</c></rc>
   </set>
  </array>
  <array name="atomtypes" >
   <dimension dim="1">type</dimension>
   <field type="int">atomspertype</field>
   <field type="string">element</field>
   <field>mass</field>
   <field>valence</field>
   <field type="string">pseudopotential</field>
   <set>
    <rc><c>  48</c><c>H </c><c>      1.00000000</c><c>      1.00000000</c><c>  PAW_PBE H 15Jun2001                   </c></rc>
    <rc><c>  24</c><c>O </c><c>     16.00000000</c><c>      6.00000000</c><c>  PAW_PBE O 08Apr2002                   </c></rc>
    <rc><c>  36</c><c>Pt</c><c>    195.08000000</c><c>     10.00000000</c><c>  PAW_PBE Pt 04Feb2005                  </c></rc>
   </set>
  </array>
 </atominfo>
 <structure name="initialpos" >
  <crystal>
   <varray name="basis" >
    <v>       8.34588864       0.00000000       0.00000000 </v>
    <v>       0.00000000       9.63700211       0.00000000 </v>
    <v>       0.00000000       0.00000000      32.54292636 </v>
   </varray>
   <i name="volume">   2617.40629817 </i>
   <varray name="rec_basis" >
    <v>       0.11981948       0.00000000       0.00000000 </v>
    <v>       0.00000000       0.10376671       0.00000000 </v>
    <v>       0.00000000       0.00000000       0.03072864 </v>
   </varray>
  </crystal>
  <varray name="positions" >
   <v>       0.98665887       0.10915620       0.48107975 </v>
   <v>       0.84153767       0.70022385       0.49117703 </v>
   <v>       0.55958478       0.62258593       0.43896252 </v>
   <v>       0.77522657       0.00447804       0.43978642 </v>
   <v>       0.39300588       0.06265051       0.46063674 </v>
   <v>       0.39883220       0.22794472       0.45566283 </v>
   <v>       0.21095486       0.20159152       0.62726473 </v>
   <v>       0.97228083       0.94162509       0.47890743 </v>
   <v>       0.62613817       0.10738664       0.56592971 </v>
   <v>       0.76217817       0.62543221       0.52731833 </v>
   <v>       0.20531696       0.43276089       0.52579053 </v>
   <v>       0.83989427       0.33138912       0.49745485 </v>
   <v>       0.55767034       0.12785979       0.51932488 </v>
   <v>       0.60786759       0.89609055       0.63673385 </v>
   <v>       0.94667364       0.71480267       0.64751876 </v>
   <v>       0.05895447       0.19990384       0.65493643 </v>
   <v>       0.51642892       0.08091628       0.74633343 </v>
   <v>       0.35405427       0.09365420       0.72261929 </v>
   <v>       0.50324135       0.53475936       0.65110120 </v>
   <v>       0.56595972       0.31877617       0.71363180 </v>
   <v>       0.17572115       0.55379996       0.64634846 </v>
   <v>       0.02597744       0.88210291       0.74295380 </v>
   <v>       0.73446769       0.15542746       0.63772592 </v>
   <v>       0.77489906       0.30588743       0.63647590 </v>
   <v>       0.02816163       0.65990838       0.43082258 </v>
   <v>       0.31758664       0.86451216       0.49697259 </v>
   <v>       0.60105255       0.04472976       0.44106586 </v>
   <v>       0.59270671       0.64004295       0.48246259 </v>
   <v>       0.22279216       0.40642645       0.43849016 </v>
   <v>       0.34956925       0.48454055       0.46208809 </v>
   <v>       0.44438488       0.50460533       0.56603867 </v>
   <v>       0.09882314       0.76643116       0.46244609 </v>
   <v>       0.22573518       0.77855409       0.56645065 </v>
   <v>       0.37650262       0.79371216       0.45772195 </v>
   <v>       0.51123436       0.89002113       0.59948893 </v>
   <v>       0.81638360       0.73278069       0.61356675 </v>
   <v>       0.18452375       0.92929918       0.57243256 </v>
   <v>       0.05823592       0.46888818       0.55347119 </v>
   <v>       0.79524948       0.22682321       0.53220929 </v>
   <v>       0.54765242       0.37269178       0.55625914 </v>
   <v>       0.98105467       0.60460236       0.70864866 </v>
   <v>       0.79501295       0.57297276       0.69436700 </v>
   <v>       0.94452142       0.90173472       0.67664686 </v>
   <v>       0.61380604       0.47928932       0.61686659 </v>
   <v>       0.56492876       0.32766190       0.73663042 </v>
   <v>       0.19715267       0.43325924       0.67485447 </v>
   <v>       0.52015694       0.91288257       0.69871722 </v>
   <v>       0.61242549       0.76184536       0.70453028 </v>
   <v>       0.73595777       0.69915657       0.50686858 </v>
   <v>       0.49743354       0.61860386       0.46453284 </v>
   <v>       0.27394265       0.40264137       0.46549210 </v>
   <v>       0.93289797       0.02738210       0.46969946 </v>
   <v>       0.47067110       0.06946015       0.71848950 </v>
   <v>       0.89195935       0.26663069       0.51600372 </v>
   <v>       0.17486579       0.48822684       0.55044211 </v>
   <v>       0.17315020       0.21964525       0.65480732 </v>
   <v>       0.60292302       0.17309174       0.54367992 </v>
   <v>       0.61405523       0.53189908       0.64424285 </v>
   <v>       0.05929758       0.95589500       0.72356878 </v>
   <v>       0.81663769       0.21746727       0.62876597 </v>
   <v>       0.32810030       0.88468477       0.46729665 </v>
   <v>       0.67085142       0.97306542       0.42820054 </v>
   <v>       0.46744308       0.14358818       0.46171493 </v>
   <v>       0.00263050       0.70543589       0.45729388 </v>
   <v>       0.88331493       0.64376476       0.69503702 </v>
   <v>       0.92988441       0.73677823       0.61770342 </v>
   <v>       0.58890918       0.95225426       0.61170368 </v>
   <v>       0.55437314       0.46777121       0.56678899 </v>
   <v>       0.26315138       0.87110226       0.55898007 </v>
   <v>       0.90764846       0.96576918       0.69736179 </v>
   <v>       0.20771122       0.53829376       0.67443508 </v>
   <v>       0.54087674       0.81902052       0.68663542 </v>
   <v>       0.16666667       0.08333333       0.21910656 </v>
   <v>       0.50000000       0.08333333       0.21910656 </v>
   <v>       0.83333333       0.08333333       0.21910656 </v>
   <v>       0.00000000       0.33333333       0.21910656 </v>
   <v>       0.33333333       0.33333333       0.21910656 </v>
   <v>       0.66666667       0.33333333       0.21910656 </v>
   <v>       0.16666667       0.58333333       0.21910656 </v>
   <v>       0.50000000       0.58333333       0.21910656 </v>
   <v>       0.83333333       0.58333333       0.21910656 </v>
   <v>       0.00000000       0.83333333       0.21910656 </v>
   <v>       0.33333333       0.83333333       0.21910656 </v>
   <v>       0.66666667       0.83333333       0.21910656 </v>
   <v>       0.00000000       0.16666667       0.28890555 </v>
   <v>       0.33333333       0.16666667       0.28890555 </v>
   <v>       0.66666667       0.16666667       0.28890555 </v>
   <v>       0.16666667       0.41666667       0.28890555 </v>
   <v>       0.50000000       0.41666667       0.28890555 </v>
   <v>       0.83333333       0.41666667       0.28890555 </v>
   <v>       0.00000000       0.66666667       0.28890555 </v>
   <v>       0.33333333       0.66666667       0.28890555 </v>
   <v>       0.66666667       0.66666667       0.28890555 </v>
   <v>       0.16666667       0.91666667       0.28890555 </v>
   <v>       0.50000000       0.91666667       0.28890555 </v>
   <v>       0.83333333       0.91666667       0.28890555 </v>
   <v>       0.00137279       0.01185954       0.36461254 </v>
   <v>       0.33290569       0.00592647       0.35818502 </v>
   <v>       0.66415140       0.00707981       0.36154021 </v>
   <v>       0.16002884       0.26038513       0.36116747 </v>
   <v>       0.49919996       0.25511619       0.35925190 </v>
   <v>       0.83251693       0.25611789       0.36041563 </v>
   <v>       0.00195286       0.50919856       0.36219696 </v>
   <v>       0.33645575       0.50972269       0.36124221 </v>
   <v>       0.66017765       0.50575679       0.36411895 </v>
   <v>       0.16379605       0.75669650       0.35971949 </v>
   <v>       0.50118493       0.75196970       0.35752041 </v>
   <v>       0.83370754       0.75526050       0.36449520 </v>
  </varray>
  <varray name="selective"  type="logical" >
   <v type="logical" >  T  T  T </v>
   <v type="logical" >  T  T  T </v>
   <v type="logical" >  T  T  T </v>
   <v type="logical" >  T  T  T </v>
   <v type="logical" >  T  T  T </v>
   <v type="logical" >  T  T  T </v>
   <v type="logical" >  T  T  T </v>
   <v type="logical" >  T  T  T </v>
   <v type="logical" >  T  T  T </v>
   <v type="logical" >  T  T  T </v>
   <v type="logical" >  T  T  T </v>
   <v type="logical" >  T  T  T </v>
   <v type="logical" >  T  T  T </v>
   <v type="logical" >  T  T  T </v>
   <v type="logical" >  T  T  T </v>
   <v type="logical" >  T  T  T </v>
   <v type="logical" >  T  T  T </v>
   <v type="logical" >  T  T  T </v>
   <v type="logical" >  T  T  T </v>
   <v type="logical" >  T  T  T </v>
   <v type="logical" >  T  T  T </v>
   <v type="logical" >  T  T  T </v>
   <v type="logical" >  T  T  T </v>
   <v type="logical" >  T  T  T </v>
   <v type="logical" >  T  T  T </v>
   <v type="logical" >  T  T  T </v>
   <v type="logical" >  T  T  T </v>
   <v type="logical" >  T  T  T </v>
   <v type="logical" >  T  T  T </v>
   <v type="logical" >  T  T  T </v>
   <v type="logical" >  T  T  T </v>
   <v type="logical" >  T  T  T </v>
   <v type="logical" >  T  T  T </v>
   <v type="logical" >  T  T  T </v>
   <v type="logical" >  T  T  T </v>
   <v type="logical" >  T  T  T </v>
   <v type="logical" >  T  T  T </v>
   <v type="logical" >  T  T  T </v>
   <v type="logical" >  T  T  T </v>
   <v type="logical" >  T  T  T </v>
   <v type="logical" >  T  T  T </v>
   <v type="logical" >  T  T  T </v>
   <v type="logical" >  T  T  T </v>
   <v type="logical" >  T  T  T </v>
   <v type="logical" >  T  T  T </v>
   <v type="logical" >  T  T  T </v>
   <v type="logical" >  T  T  T </v>
   <v type="logical" >  T  T  T </v>
   <v type="logical" >  T  T  T </v>
   <v type="logical" >  T  T  T </v>
   <v type="logical" >  T  T  T </v>
   <v type="logical" >  T  T  T </v>
   <v type="logical" >  T  T  T </v>
   <v type="logical" >  T  T  T </v>
   <v type="logical" >  T  T  T </v>
   <v type="logical" >  T  T  T </v>
   <v type="logical" >  T  T  T </v>
   <v type="logical" >  T  T  T </v>
   <v type="logical" >  T  T  T </v>
   <v type="logical" >  T  T  T </v>
   <v type="logical" >  T  T  T </v>
   <v type="logical" >  T  T  T </v>
   <v type="logical" >  T  T  T </v>
   <v type="logical" >  T  T  T </v>
   <v type="logical" >  T  T  T </v>
   <v type="logical" >  T  T  T </v>
   <v type="logical" >  T  T  T </v>
   <v type="logical" >  T  T  T </v>
   <v type="logical" >  T  T  T </v>
   <v type="logical" >  T  T  T </v>
   <v type="logical" >  T  T  T </v>
   <v type="logical" >  T  T  T </v>
   <v type="logical" >  F  F  F </v>
   <v type="logical" >  F  F  F </v>
   <v type="logical" >  F  F  F </v>
   <v type="logical" >  F  F  F </v>
   <v type="logical" >  F  F  F </v>
   <v type="logical" >  F  F  F </v>
   <v type="logical" >  F  F  F </v>
   <v type="logical" >  F  F  F </v>
   <v type="logical" >  F  F  F </v>
   <v type="logical" >  F  F  F </v>
   <v type="logical" >  F  F  F </v>
   <v type="logical" >  F  F  F </v>
   <v type="logical" >  F  F  F </v>
   <v type="logical" >  F  F  F </v>
   <v type="logical" >  F  F  F </v>
   <v type="logical" >  F  F  F </v>
   <v type="logical" >  F  F  F </v>
   <v type="logical" >  F  F  F </v>
   <v type="logical" >  F  F  F </v>
   <v type="logical" >  F  F  F </v>
   <v type="logical" >  F  F  F </v>
   <v type="logical" >  F  F  F </v>
   <v type="logical" >  F  F  F </v>
   <v type="logical" >  F  F  F </v>
   <v type="logical" >  T  T  T </v>
   <v type="logical" >  T  T  T </v>
   <v type="logical" >  T  T  T </v>
   <v type="logical" >  T  T  T </v>
   <v type="logical" >  T  T  T </v>
   <v type="logical" >  T  T  T </v>
   <v type="logical" >  T  T  T </v>
   <v type="logical" >  T  T  T </v>
   <v type="logical" >  T  T  T </v>
   <v type="logical" >  T  T  T </v>
   <v type="logical" >  T  T  T </v>
   <v type="logical" >  T  T  T </v>
  </varray>
  <nose>
   <v>      -3.00000000       0.00000000       0.00010000       0.00010000 </v>
  </nose>
 </structure>
 <calculation>
  <scstep>
   <time name="dav">   26.55   26.61</time>
   <time name="total">   26.71   26.77</time>
   <dipole>
    <v name="dipole">      0.00000000       0.00000000       0.00010584 </v>
    <i name="Tr[quadrupol]">  -7618.02142169 </i>
    <i name="Echarged">      0.00000000 </i>
    <i name="Edipol_quadrupol">      0.00000000 </i>
    <i name="Eion">      0.00000000 </i>
   </dipole>
   <energy>
    <i name="alphaZ">    863.60154522 </i>
    <i name="ewald"> 205146.35804036 </i>
    <i name="hartreedc">-241918.17503712 </i>
    <i name="XCdc">    878.66592292 </i>
    <i name="pawpsdc">  33505.36643195 </i>
    <i name="pawaedc"> -32489.60540758 </i>
    <i name="eentropy">     -0.13446526 </i>
    <i name="bandstr">    540.09131795 </i>
    <i name="atom">  37193.95212048 </i>
    <i name="e_fr_energy">   3720.12046893 </i>
    <i name="e_wo_entrp">   3720.25493419 </i>
    <i name="e_0_energy">   3720.18770156 </i>
   </energy>
  </scstep>
  <scstep>
   <time name="dav">   31.04   31.08</time>
   <time name="total">   31.04   31.09</time>
   <dipole>
    <v name="dipole">      0.00000000       0.00000000       0.00010584 </v>
    <i name="Tr[quadrupol]">  -7618.02142169 </i>
    <i name="Echarged">      0.00000000 </i>
    <i name="Edipol_quadrupol">      0.00000000 </i>
    <i name="Eion">      0.00000000 </i>
   </dipole>
   <energy>
    <i name="e_fr_energy">   -143.19043483 </i>
    <i name="e_wo_entrp">   -142.97966419 </i>
    <i name="e_0_energy">   -143.08504951 </i>
   </energy>
  </scstep>
  <scstep>
   <time name="dav">   28.78   28.82</time>
   <time name="total">   28.79   28.82</time>
   <dipole>
    <v name="dipole">      0.00000000       0.00000000       0.00010584 </v>
    <i name="Tr[quadrupol]">  -7618.02142169 </i>
    <i name="Echarged">      0.00000000 </i>
    <i name="Edipol_quadrupol">      0.00000000 </i>
    <i name="Eion">      0.00000000 </i>
   </dipole>
   <energy>
    <i name="e_fr_energy">   -557.49566954 </i>
    <i name="e_wo_entrp">   -557.25565840 </i>
    <i name="e_0_energy">   -557.37566397 </i>
   </energy>
  </scstep>
  <scstep>
   <time name="dav">   31.15   31.21</time>
   <time name="total">   31.16   31.21</time>
   <dipole>
    <v name="dipole">      0.00000000       0.00000000       0.00010584 </v>
    <i name="Tr[quadrupol]">  -7618.02142169 </i>
    <i name="Echarged">      0.00000000 </i>
    <i name="Edipol_quadrupol">      0.00000000 </i>
    <i name="Eion">      0.00000000 </i>
   </dipole>
   <energy>
    <i name="e_fr_energy">   -571.29211322 </i>
    <i name="e_wo_entrp">   -571.01049605 </i>
    <i name="e_0_energy">   -571.15130463 </i>
   </energy>
  </scstep>
  <scstep>
   <time name="dav">   33.36   33.41</time>
   <time name="total">   34.17   34.21</time>
   <dipole>
    <v name="dipole">      0.00000000       0.00000000       0.00010584 </v>
    <i name="Tr[quadrupol]">  -7618.02142169 </i>
    <i name="Echarged">      0.00000000 </i>
    <i name="Edipol_quadrupol">      0.00000000 </i>
    <i name="Eion">      0.00000000 </i>
   </dipole>
   <energy>
    <i name="e_fr_energy">   -571.77163170 </i>
    <i name="e_wo_entrp">   -571.48160237 </i>
    <i name="e_0_energy">   -571.62661704 </i>
   </energy>
  </scstep>
  <scstep>
   <time name="dav">   29.44   29.47</time>
   <time name="total">   30.37   30.41</time>
   <dipole>
    <v name="dipole">      0.00000000       0.00000000       2.44972975 </v>
    <i name="Tr[quadrupol]">  -7622.05648268 </i>
    <i name="Echarged">      0.00000000 </i>
    <i name="Edipol_quadrupol">      0.00000000 </i>
    <i name="Eion">      0.00000000 </i>
   </dipole>
   <energy>
    <i name="e_fr_energy">   -572.22384092 </i>
    <i name="e_wo_entrp">   -572.03183784 </i>
    <i name="e_0_energy">   -572.12783938 </i>
   </energy>
  </scstep>
  <scstep>
   <time name="dav">   41.00   41.04</time>
   <time name="total">   41.95   42.00</time>
   <dipole>
    <v name="dipole">      0.00000000       0.00000000      -7.23840453 </v>
    <i name="Tr[quadrupol]">  -7600.78968275 </i>
    <i name="Echarged">      0.00000000 </i>
    <i name="Edipol_quadrupol">      0.00000000 </i>
    <i name="Eion">      0.00000000 </i>
   </dipole>
   <energy>
    <i name="e_fr_energy">  -1008.15825962 </i>
    <i name="e_wo_entrp">  -1007.86000708 </i>
    <i name="e_0_energy">  -1008.00913335 </i>
   </energy>
  </scstep>
  <scstep>
   <time name="dav">   39.19   39.25</time>
   <time name="total">   40.13   40.18</time>
   <dipole>
    <v name="dipole">      0.00000000       0.00000000       8.73650691 </v>
    <i name="Tr[quadrupol]">  -7610.31906242 </i>
    <i name="Echarged">      0.00000000 </i>
    <i name="Edipol_quadrupol">      0.00000000 </i>
    <i name="Eion">      0.00000000 </i>
   </dipole>
   <energy>
    <i name="e_fr_energy">   -612.35597923 </i>
    <i name="e_wo_entrp">   -612.23563673 </i>
    <i name="e_0_energy">   -612.29580798 </i>
   </energy>
  </scstep>
  <scstep>
   <time name="dav">   28.52   28.57</time>
   <time name="total">   29.45   29.51</time>
   <dipole>
    <v name="dipole">      0.00000000       0.00000000       8.63599191 </v>
    <i name="Tr[quadrupol]">  -7612.60588070 </i>
    <i name="Echarged">      0.00000000 </i>
    <i name="Edipol_quadrupol">      0.00000000 </i>
    <i name="Eion">      0.00000000 </i>
   </dipole>
   <energy>
    <i name="e_fr_energy">   -786.37809488 </i>
    <i name="e_wo_entrp">   -786.24724577 </i>
    <i name="e_0_energy">   -786.31267033 </i>
   </energy>
  </scstep>
  <scstep>
   <time name="dav">   31.63   31.67</time>
   <time name="total">   32.57   32.61</time>
   <dipole>
    <v name="dipole">      0.00000000       0.00000000       8.19353164 </v>
    <i name="Tr[quadrupol]">  -7603.94774108 </i>
    <i name="Echarged">      0.00000000 </i>
    <i name="Edipol_quadrupol">      0.00000000 </i>
    <i name="Eion">      0.00000000 </i>
   </dipole>
   <energy>
    <i name="e_fr_energy">   -694.56478305 </i>
    <i name="e_wo_entrp">   -694.38762648 </i>
    <i name="e_0_energy">   -694.47620477 </i>
   </energy>
  </scstep>
  <scstep>
   <time name="dav">   30.67   30.71</time>
   <time name="total">   31.60   31.65</time>
   <dipole>
    <v name="dipole">      0.00000000       0.00000000       8.75362547 </v>
    <i name="Tr[quadrupol]">  -7587.43234128 </i>
    <i name="Echarged">      0.00000000 </i>
    <i name="Edipol_quadrupol">      0.00000000 </i>
    <i name="Eion">      0.00000000 </i>
   </dipole>
   <energy>
    <i name="e_fr_energy">   -660.10019538 </i>
    <i name="e_wo_entrp">   -659.94156496 </i>
    <i name="e_0_energy">   -660.02088017 </i>
   </energy>
  </scstep>
  <scstep>
   <time name="dav">   29.45   29.48</time>
   <time name="total">   30.39   30.43</time>
   <dipole>
    <v name="dipole">      0.00000000       0.00000000       9.43546413 </v>
    <i name="Tr[quadrupol]">  -7578.75736574 </i>
    <i name="Echarged">      0.00000000 </i>
    <i name="Edipol_quadrupol">      0.00000000 </i>
    <i name="Eion">      0.00000000 </i>
   </dipole>
   <energy>
    <i name="e_fr_energy">   -610.06526150 </i>
    <i name="e_wo_entrp">   -609.67083023 </i>
    <i name="e_0_energy">   -609.86804586 </i>
   </energy>
  </scstep>
  <scstep>
   <time name="dav">   30.25   30.29</time>
   <time name="total">   31.19   31.23</time>
   <dipole>
    <v name="dipole">      0.00000000       0.00000000      10.61571937 </v>
    <i name="Tr[quadrupol]">  -7541.36721561 </i>
    <i name="Echarged">      0.00000000 </i>
    <i name="Edipol_quadrupol">      0.00000000 </i>
    <i name="Eion">      0.00000000 </i>
   </dipole>
   <energy>
    <i name="e_fr_energy">   -599.11823260 </i>
    <i name="e_wo_entrp">   -598.91706547 </i>
    <i name="e_0_energy">   -599.01764904 </i>
   </energy>
  </scstep>
  <scstep>
   <time name="dav">   29.05   29.09</time>
   <time name="total">   30.00   30.05</time>
   <dipole>
    <v name="dipole">      0.00000000       0.00000000      10.83558177 </v>
    <i name="Tr[quadrupol]">  -7534.12363117 </i>
    <i name="Echarged">      0.00000000 </i>
    <i name="Edipol_quadrupol">      0.00000000 </i>
    <i name="Eion">      0.00000000 </i>
   </dipole>
   <energy>
    <i name="e_fr_energy">   -563.03402198 </i>
    <i name="e_wo_entrp">   -562.76618371 </i>
    <i name="e_0_energy">   -562.90010284 </i>
   </energy>
  </scstep>
  <scstep>
   <time name="dav">   28.93   28.98</time>
   <time name="total">   29.88   29.93</time>
   <dipole>
    <v name="dipole">      0.00000000       0.00000000      10.32550049 </v>
    <i name="Tr[quadrupol]">  -7529.70361900 </i>
    <i name="Echarged">      0.00000000 </i>
    <i name="Edipol_quadrupol">      0.00000000 </i>
    <i name="Eion">      0.00000000 </i>
   </dipole>
   <energy>
    <i name="e_fr_energy">   -556.98037857 </i>
    <i name="e_wo_entrp">   -556.67478681 </i>
    <i name="e_0_energy">   -556.82758269 </i>
   </energy>
  </scstep>
  <scstep>
   <time name="dav">   29.56   29.60</time>
   <time name="total">   30.51   30.54</time>
   <dipole>
    <v name="dipole">      0.00000000       0.00000000       9.86683736 </v>
    <i name="Tr[quadrupol]">  -7531.08989671 </i>
    <i name="Echarged">      0.00000000 </i>
    <i name="Edipol_quadrupol">      0.00000000 </i>
    <i name="Eion">      0.00000000 </i>
   </dipole>
   <energy>
    <i name="e_fr_energy">   -558.60922826 </i>
    <i name="e_wo_entrp">   -558.36655926 </i>
    <i name="e_0_energy">   -558.48789376 </i>
   </energy>
  </scstep>
  <scstep>
   <time name="dav">   29.64   29.67</time>
   <time name="total">   30.58   30.62</time>
   <dipole>
    <v name="dipole">      0.00000000       0.00000000       8.54348014 </v>
    <i name="Tr[quadrupol]">  -7538.41817451 </i>
    <i name="Echarged">      0.00000000 </i>
    <i name="Edipol_quadrupol">      0.00000000 </i>
    <i name="Eion">      0.00000000 </i>
   </dipole>
   <energy>
    <i name="e_fr_energy">   -556.39470346 </i>
    <i name="e_wo_entrp">   -556.10368935 </i>
    <i name="e_0_energy">   -556.24919640 </i>
   </energy>
  </scstep>
  <scstep>
   <time name="dav">   31.56   31.60</time>
   <time name="total">   32.52   32.56</time>
   <dipole>
    <v name="dipole">      0.00000000       0.00000000       7.64369235 </v>
    <i name="Tr[quadrupol]">  -7543.38788424 </i>
    <i name="Echarged">      0.00000000 </i>
    <i name="Edipol_quadrupol">      0.00000000 </i>
    <i name="Eion">      0.00000000 </i>
   </dipole>
   <energy>
    <i name="e_fr_energy">   -559.27227309 </i>
    <i name="e_wo_entrp">   -558.94366993 </i>
    <i name="e_0_energy">   -559.10797151 </i>
   </energy>
  </scstep>
  <scstep>
   <time name="dav">   31.28   31.32</time>
   <time name="total">   32.24   32.28</time>
   <dipole>
    <v name="dipole">      0.00000000       0.00000000       7.49299318 </v>
    <i name="Tr[quadrupol]">  -7545.18510065 </i>
    <i name="Echarged">      0.00000000 </i>
    <i name="Edipol_quadrupol">      0.00000000 </i>
    <i name="Eion">      0.00000000 </i>
   </dipole>
   <energy>
    <i name="e_fr_energy">   -558.77615583 </i>
    <i name="e_wo_entrp">   -558.44315572 </i>
    <i name="e_0_energy">   -558.60965577 </i>
   </energy>
  </scstep>
  <scstep>
   <time name="dav">   31.00   31.05</time>
   <time name="total">   31.95   32.00</time>
   <dipole>
    <v name="dipole">      0.00000000       0.00000000       7.34049394 </v>
    <i name="Tr[quadrupol]">  -7547.24779947 </i>
    <i name="Echarged">      0.00000000 </i>
    <i name="Edipol_quadrupol">      0.00000000 </i>
    <i name="Eion">      0.00000000 </i>
   </dipole>
   <energy>
    <i name="e_fr_energy">   -558.33525159 </i>
    <i name="e_wo_entrp">   -558.00106056 </i>
    <i name="e_0_energy">   -558.16815608 </i>
   </energy>
  </scstep>
  <scstep>
   <time name="dav">   30.33   30.37</time>
   <time name="total">   31.28   31.32</time>
   <dipole>
    <v name="dipole">      0.00000000       0.00000000       7.05675663 </v>
    <i name="Tr[quadrupol]">  -7550.85751210 </i>
    <i name="Echarged">      0.00000000 </i>
    <i name="Edipol_quadrupol">      0.00000000 </i>
    <i name="Eion">      0.00000000 </i>
   </dipole>
   <energy>
    <i name="e_fr_energy">   -557.80562849 </i>
    <i name="e_wo_entrp">   -557.45755291 </i>
    <i name="e_0_energy">   -557.63159070 </i>
   </energy>
  </scstep>
  <scstep>
   <time name="dav">   31.78   31.82</time>
   <time name="total">   32.73   32.77</time>
   <dipole>
    <v name="dipole">      0.00000000       0.00000000       6.34957246 </v>
    <i name="Tr[quadrupol]">  -7560.28703768 </i>
    <i name="Echarged">      0.00000000 </i>
    <i name="Edipol_quadrupol">      0.00000000 </i>
    <i name="Eion">      0.00000000 </i>
   </dipole>
   <energy>
    <i name="e_fr_energy">   -557.91560444 </i>
    <i name="e_wo_entrp">   -557.53955778 </i>
    <i name="e_0_energy">   -557.72758111 </i>
   </energy>
  </scstep>
  <scstep>
   <time name="dav">   30.60   30.64</time>
   <time name="total">   31.56   31.60</time>
   <dipole>
    <v name="dipole">      0.00000000       0.00000000       6.21459478 </v>
    <i name="Tr[quadrupol]">  -7562.05075194 </i>
    <i name="Echarged">      0.00000000 </i>
    <i name="Edipol_quadrupol">      0.00000000 </i>
    <i name="Eion">      0.00000000 </i>
   </dipole>
   <energy>
    <i name="e_fr_energy">   -558.21158820 </i>
    <i name="e_wo_entrp">   -557.84012189 </i>
    <i name="e_0_energy">   -558.02585504 </i>
   </energy>
  </scstep>
  <scstep>
   <time name="dav">   31.36   31.40</time>
   <time name="total">   32.31   32.35</time>
   <dipole>
    <v name="dipole">      0.00000000       0.00000000       6.20921894 </v>
    <i name="Tr[quadrupol]">  -7562.10173988 </i>
    <i name="Echarged">      0.00000000 </i>
    <i name="Edipol_quadrupol">      0.00000000 </i>
    <i name="Eion">      0.00000000 </i>
   </dipole>
   <energy>
    <i name="e_fr_energy">   -558.29842080 </i>
    <i name="e_wo_entrp">   -557.92729061 </i>
    <i name="e_0_energy">   -558.11285570 </i>
   </energy>
  </scstep>
  <scstep>
   <time name="dav">   30.60   30.64</time>
   <time name="total">   31.56   31.61</time>
   <dipole>
    <v name="dipole">      0.00000000       0.00000000       5.90847252 </v>
    <i name="Tr[quadrupol]">  -7566.84057954 </i>
    <i name="Echarged">      0.00000000 </i>
    <i name="Edipol_quadrupol">      0.00000000 </i>
    <i name="Eion">      0.00000000 </i>
   </dipole>
   <energy>
    <i name="e_fr_energy">   -560.77489967 </i>
    <i name="e_wo_entrp">   -560.38364166 </i>
    <i name="e_0_energy">   -560.57927066 </i>
   </energy>
  </scstep>
  <scstep>
   <time name="dav">   30.68   30.73</time>
   <time name="total">   31.63   31.69</time>
   <dipole>
    <v name="dipole">      0.00000000       0.00000000       5.38268600 </v>
    <i name="Tr[quadrupol]">  -7575.28292010 </i>
    <i name="Echarged">      0.00000000 </i>
    <i name="Edipol_quadrupol">      0.00000000 </i>
    <i name="Eion">      0.00000000 </i>
   </dipole>
   <energy>
    <i name="e_fr_energy">   -562.04070597 </i>
    <i name="e_wo_entrp">   -561.62999370 </i>
    <i name="e_0_energy">   -561.83534983 </i>
   </energy>
  </scstep>
  <scstep>
   <time name="dav">   31.92   31.96</time>
   <time name="total">   32.88   32.93</time>
   <dipole>
    <v name="dipole">      0.00000000       0.00000000       4.02528198 </v>
    <i name="Tr[quadrupol]">  -7596.41271082 </i>
    <i name="Echarged">      0.00000000 </i>
    <i name="Edipol_quadrupol">      0.00000000 </i>
    <i name="Eion">      0.00000000 </i>
   </dipole>
   <energy>
    <i name="e_fr_energy">   -567.83485174 </i>
    <i name="e_wo_entrp">   -567.39643090 </i>
    <i name="e_0_energy">   -567.61564132 </i>
   </energy>
  </scstep>
  <scstep>
   <time name="dav">   32.63   32.67</time>
   <time name="total">   33.60   33.64</time>
   <dipole>
    <v name="dipole">      0.00000000       0.00000000       3.04788283 </v>
    <i name="Tr[quadrupol]">  -7611.06225123 </i>
    <i name="Echarged">      0.00000000 </i>
    <i name="Edipol_quadrupol">      0.00000000 </i>
    <i name="Eion">      0.00000000 </i>
   </dipole>
   <energy>
    <i name="e_fr_energy">   -575.33699463 </i>
    <i name="e_wo_entrp">   -574.86177467 </i>
    <i name="e_0_energy">   -575.09938465 </i>
   </energy>
  </scstep>
  <scstep>
   <time name="dav">   29.62   29.66</time>
   <time name="total">   30.58   30.63</time>
   <dipole>
    <v name="dipole">      0.00000000       0.00000000       3.10481534 </v>
    <i name="Tr[quadrupol]">  -7610.25767459 </i>
    <i name="Echarged">      0.00000000 </i>
    <i name="Edipol_quadrupol">      0.00000000 </i>
    <i name="Eion">      0.00000000 </i>
   </dipole>
   <energy>
    <i name="e_fr_energy">   -573.61975784 </i>
    <i name="e_wo_entrp">   -573.15000463 </i>
    <i name="e_0_energy">   -573.38488123 </i>
   </energy>
  </scstep>
  <scstep>
   <time name="dav">   31.14   31.18</time>
   <time name="total">   32.11   32.15</time>
   <dipole>
    <v name="dipole">      0.00000000       0.00000000       3.13363750 </v>
    <i name="Tr[quadrupol]">  -7609.55690862 </i>
    <i name="Echarged">      0.00000000 </i>
    <i name="Edipol_quadrupol">      0.00000000 </i>
    <i name="Eion">      0.00000000 </i>
   </dipole>
   <energy>
    <i name="e_fr_energy">   -573.26511164 </i>
    <i name="e_wo_entrp">   -572.80137520 </i>
    <i name="e_0_energy">   -573.03324342 </i>
   </energy>
  </scstep>
  <scstep>
   <time name="dav">   31.45   31.50</time>
   <time name="total">   32.42   32.48</time>
   <dipole>
    <v name="dipole">      0.00000000       0.00000000       3.06706338 </v>
    <i name="Tr[quadrupol]">  -7607.68168355 </i>
    <i name="Echarged">      0.00000000 </i>
    <i name="Edipol_quadrupol">      0.00000000 </i>
    <i name="Eion">      0.00000000 </i>
   </dipole>
   <energy>
    <i name="e_fr_energy">   -577.84549714 </i>
    <i name="e_wo_entrp">   -577.37463396 </i>
    <i name="e_0_energy">   -577.61006555 </i>
   </energy>
  </scstep>
  <scstep>
   <time name="dav">   30.44   30.48</time>
   <time name="total">   31.42   31.45</time>
   <dipole>
    <v name="dipole">      0.00000000       0.00000000       3.25555093 </v>
    <i name="Tr[quadrupol]">  -7602.96931457 </i>
    <i name="Echarged">      0.00000000 </i>
    <i name="Edipol_quadrupol">      0.00000000 </i>
    <i name="Eion">      0.00000000 </i>
   </dipole>
   <energy>
    <i name="e_fr_energy">   -577.51427135 </i>
    <i name="e_wo_entrp">   -577.05294141 </i>
    <i name="e_0_energy">   -577.28360638 </i>
   </energy>
  </scstep>
  <scstep>
   <time name="dav">   31.20   31.24</time>
   <time name="total">   32.18   32.23</time>
   <dipole>
    <v name="dipole">      0.00000000       0.00000000       1.64900266 </v>
    <i name="Tr[quadrupol]">  -7638.15174943 </i>
    <i name="Echarged">      0.00000000 </i>
    <i name="Edipol_quadrupol">      0.00000000 </i>
    <i name="Eion">      0.00000000 </i>
   </dipole>
   <energy>
    <i name="e_fr_energy">   -583.22154609 </i>
    <i name="e_wo_entrp">   -582.75698360 </i>
    <i name="e_0_energy">   -582.98926485 </i>
   </energy>
  </scstep>
  <scstep>
   <time name="dav">   32.81   32.86</time>
   <time name="total">   33.79   33.84</time>
   <dipole>
    <v name="dipole">      0.00000000       0.00000000       0.36266114 </v>
    <i name="Tr[quadrupol]">  -7662.30410953 </i>
    <i name="Echarged">      0.00000000 </i>
    <i name="Edipol_quadrupol">      0.00000000 </i>
    <i name="Eion">      0.00000000 </i>
   </dipole>
   <energy>
    <i name="e_fr_energy">   -599.68084895 </i>
    <i name="e_wo_entrp">   -599.30008064 </i>
    <i name="e_0_energy">   -599.49046480 </i>
   </energy>
  </scstep>
  <scstep>
   <time name="dav">   31.96   31.99</time>
   <time name="total">   32.94   32.98</time>
   <dipole>
    <v name="dipole">      0.00000000       0.00000000       0.34070341 </v>
    <i name="Tr[quadrupol]">  -7662.05031315 </i>
    <i name="Echarged">      0.00000000 </i>
    <i name="Edipol_quadrupol">      0.00000000 </i>
    <i name="Eion">      0.00000000 </i>
   </dipole>
   <energy>
    <i name="e_fr_energy">   -600.86286754 </i>
    <i name="e_wo_entrp">   -600.48680077 </i>
    <i name="e_0_energy">   -600.67483415 </i>
   </energy>
  </scstep>
  <scstep>
   <time name="dav">   33.55   33.60</time>
   <time name="total">   34.54   34.59</time>
   <dipole>
    <v name="dipole">      0.00000000       0.00000000       0.34757206 </v>
    <i name="Tr[quadrupol]">  -7662.96359787 </i>
    <i name="Echarged">      0.00000000 </i>
    <i name="Edipol_quadrupol">      0.00000000 </i>
    <i name="Eion">      0.00000000 </i>
   </dipole>
   <energy>
    <i name="e_fr_energy">   -600.91893859 </i>
    <i name="e_wo_entrp">   -600.53964957 </i>
    <i name="e_0_energy">   -600.72929408 </i>
   </energy>
  </scstep>
  <scstep>
   <time name="dav">   32.71   32.75</time>
   <time name="total">   33.69   33.75</time>
   <dipole>
    <v name="dipole">      0.00000000       0.00000000       0.55952785 </v>
    <i name="Tr[quadrupol]">  -7661.28242615 </i>
    <i name="Echarged">      0.00000000 </i>
    <i name="Edipol_quadrupol">      0.00000000 </i>
    <i name="Eion">      0.00000000 </i>
   </dipole>
   <energy>
    <i name="e_fr_energy">   -595.91390303 </i>
    <i name="e_wo_entrp">   -595.51270641 </i>
    <i name="e_0_energy">   -595.71330472 </i>
   </energy>
  </scstep>
  <scstep>
   <time name="dav">   32.75   32.78</time>
   <time name="total">   33.73   33.76</time>
   <dipole>
    <v name="dipole">      0.00000000       0.00000000       0.61496327 </v>
    <i name="Tr[quadrupol]">  -7663.75642185 </i>
    <i name="Echarged">      0.00000000 </i>
    <i name="Edipol_quadrupol">      0.00000000 </i>
    <i name="Eion">      0.00000000 </i>
   </dipole>
   <energy>
    <i name="e_fr_energy">   -593.46012215 </i>
    <i name="e_wo_entrp">   -593.04972346 </i>
    <i name="e_0_energy">   -593.25492281 </i>
   </energy>
  </scstep>
  <scstep>
   <time name="dav">   32.45   32.49</time>
   <time name="total">   33.43   33.47</time>
   <dipole>
    <v name="dipole">      0.00000000       0.00000000       0.23169984 </v>
    <i name="Tr[quadrupol]">  -7674.77463715 </i>
    <i name="Echarged">      0.00000000 </i>
    <i name="Edipol_quadrupol">      0.00000000 </i>
    <i name="Eion">      0.00000000 </i>
   </dipole>
   <energy>
    <i name="e_fr_energy">   -599.84299265 </i>
    <i name="e_wo_entrp">   -599.45443078 </i>
    <i name="e_0_energy">   -599.64871171 </i>
   </energy>
  </scstep>
  <scstep>
   <time name="dav">   32.91   32.95</time>
   <time name="total">   33.90   33.94</time>
   <dipole>
    <v name="dipole">      0.00000000       0.00000000      -0.04685333 </v>
    <i name="Tr[quadrupol]">  -7682.53380443 </i>
    <i name="Echarged">      0.00000000 </i>
    <i name="Edipol_quadrupol">      0.00000000 </i>
    <i name="Eion">      0.00000000 </i>
   </dipole>
   <energy>
    <i name="e_fr_energy">   -607.09937347 </i>
    <i name="e_wo_entrp">   -606.70504730 </i>
    <i name="e_0_energy">   -606.90221039 </i>
   </energy>
  </scstep>
  <scstep>
   <time name="dav">   32.19   32.23</time>
   <time name="total">   33.16   33.21</time>
   <dipole>
    <v name="dipole">      0.00000000       0.00000000      -0.70894970 </v>
    <i name="Tr[quadrupol]">  -7696.91337658 </i>
    <i name="Echarged">      0.00000000 </i>
    <i name="Edipol_quadrupol">      0.00000000 </i>
    <i name="Eion">      0.00000000 </i>
   </dipole>
   <energy>
    <i name="e_fr_energy">   -622.52146999 </i>
    <i name="e_wo_entrp">   -622.10460718 </i>
    <i name="e_0_energy">   -622.31303858 </i>
   </energy>
  </scstep>
  <scstep>
   <time name="dav">   34.06   34.11</time>
   <time name="total">   35.03   35.08</time>
   <dipole>
    <v name="dipole">      0.00000000       0.00000000      -0.81097176 </v>
    <i name="Tr[quadrupol]">  -7702.08282594 </i>
    <i name="Echarged">      0.00000000 </i>
    <i name="Edipol_quadrupol">      0.00000000 </i>
    <i name="Eion">      0.00000000 </i>
   </dipole>
   <energy>
    <i name="e_fr_energy">   -619.92851283 </i>
    <i name="e_wo_entrp">   -619.47768252 </i>
    <i name="e_0_energy">   -619.70309767 </i>
   </energy>
  </scstep>
  <scstep>
   <time name="dav">   32.33   32.37</time>
   <time name="total">   33.30   33.35</time>
   <dipole>
    <v name="dipole">      0.00000000       0.00000000      -0.92211738 </v>
    <i name="Tr[quadrupol]">  -7703.33434249 </i>
    <i name="Echarged">      0.00000000 </i>
    <i name="Edipol_quadrupol">      0.00000000 </i>
    <i name="Eion">      0.00000000 </i>
   </dipole>
   <energy>
    <i name="e_fr_energy">   -626.46409573 </i>
    <i name="e_wo_entrp">   -626.02848485 </i>
    <i name="e_0_energy">   -626.24629029 </i>
   </energy>
  </scstep>
  <scstep>
   <time name="dav">   30.85   30.89</time>
   <time name="total">   31.83   31.86</time>
   <dipole>
    <v name="dipole">      0.00000000       0.00000000      -0.85415221 </v>
    <i name="Tr[quadrupol]">  -7701.63666613 </i>
    <i name="Echarged">      0.00000000 </i>
    <i name="Edipol_quadrupol">      0.00000000 </i>
    <i name="Eion">      0.00000000 </i>
   </dipole>
   <energy>
    <i name="e_fr_energy">   -624.76921254 </i>
    <i name="e_wo_entrp">   -624.33134184 </i>
    <i name="e_0_energy">   -624.55027719 </i>
   </energy>
  </scstep>
  <scstep>
   <time name="dav">   33.95   33.99</time>
   <time name="total">   34.92   34.97</time>
   <dipole>
    <v name="dipole">      0.00000000       0.00000000      -0.84506123 </v>
    <i name="Tr[quadrupol]">  -7701.34335700 </i>
    <i name="Echarged">      0.00000000 </i>
    <i name="Edipol_quadrupol">      0.00000000 </i>
    <i name="Eion">      0.00000000 </i>
   </dipole>
   <energy>
    <i name="e_fr_energy">   -624.75718783 </i>
    <i name="e_wo_entrp">   -624.32027528 </i>
    <i name="e_0_energy">   -624.53873156 </i>
   </energy>
  </scstep>
  <scstep>
   <time name="dav">   32.11   32.14</time>
   <time name="total">   33.08   33.12</time>
   <dipole>
    <v name="dipole">      0.00000000       0.00000000      -0.67296626 </v>
    <i name="Tr[quadrupol]">  -7699.80676425 </i>
    <i name="Echarged">      0.00000000 </i>
    <i name="Edipol_quadrupol">      0.00000000 </i>
    <i name="Eion">      0.00000000 </i>
   </dipole>
   <energy>
    <i name="e_fr_energy">   -618.50449728 </i>
    <i name="e_wo_entrp">   -618.05700143 </i>
    <i name="e_0_energy">   -618.28074935 </i>
   </energy>
  </scstep>
  <scstep>
   <time name="dav">   32.53   32.79</time>
   <time name="total">   33.52   33.78</time>
   <dipole>
    <v name="dipole">      0.00000000       0.00000000      -1.16518318 </v>
    <i name="Tr[quadrupol]">  -7712.26121257 </i>
    <i name="Echarged">      0.00000000 </i>
    <i name="Edipol_quadrupol">      0.00000000 </i>
    <i name="Eion">      0.00000000 </i>
   </dipole>
   <energy>
    <i name="e_fr_energy">   -638.09131578 </i>
    <i name="e_wo_entrp">   -637.63756497 </i>
    <i name="e_0_energy">   -637.86444038 </i>
   </energy>
  </scstep>
  <scstep>
   <time name="dav">   30.47   30.51</time>
   <time name="total">   31.46   31.50</time>
   <dipole>
    <v name="dipole">      0.00000000       0.00000000      -0.79012737 </v>
    <i name="Tr[quadrupol]">  -7697.17613424 </i>
    <i name="Echarged">      0.00000000 </i>
    <i name="Edipol_quadrupol">      0.00000000 </i>
    <i name="Eion">      0.00000000 </i>
   </dipole>
   <energy>
    <i name="e_fr_energy">   -628.59637605 </i>
    <i name="e_wo_entrp">   -628.17686537 </i>
    <i name="e_0_energy">   -628.38662071 </i>
   </energy>
  </scstep>
  <scstep>
   <time name="dav">   30.31   30.35</time>
   <time name="total">   31.30   31.34</time>
   <dipole>
    <v name="dipole">      0.00000000       0.00000000      -0.53240605 </v>
    <i name="Tr[quadrupol]">  -7692.50929865 </i>
    <i name="Echarged">      0.00000000 </i>
    <i name="Edipol_quadrupol">      0.00000000 </i>
    <i name="Eion">      0.00000000 </i>
   </dipole>
   <energy>
    <i name="e_fr_energy">   -622.65426329 </i>
    <i name="e_wo_entrp">   -622.23640568 </i>
    <i name="e_0_energy">   -622.44533448 </i>
   </energy>
  </scstep>
  <scstep>
   <time name="dav">   31.70   31.74</time>
   <time name="total">   32.69   32.73</time>
   <dipole>
    <v name="dipole">      0.00000000       0.00000000      -0.51122251 </v>
    <i name="Tr[quadrupol]">  -7692.06705324 </i>
    <i name="Echarged">      0.00000000 </i>
    <i name="Edipol_quadrupol">      0.00000000 </i>
    <i name="Eion">      0.00000000 </i>
   </dipole>
   <energy>
    <i name="e_fr_energy">   -622.73979440 </i>
    <i name="e_wo_entrp">   -622.32289936 </i>
    <i name="e_0_energy">   -622.53134688 </i>
   </energy>
  </scstep>
  <scstep>
   <time name="dav">   29.84   29.87</time>
   <time name="total">   30.83   30.87</time>
   <dipole>
    <v name="dipole">      0.00000000       0.00000000       8.13300241 </v>
    <i name="Tr[quadrupol]">  -7392.30341761 </i>
    <i name="Echarged">      0.00000000 </i>
    <i name="Edipol_quadrupol">      0.00000000 </i>
    <i name="Eion">      0.00000000 </i>
   </dipole>
   <energy>
    <i name="e_fr_energy">   -598.95709625 </i>
    <i name="e_wo_entrp">   -598.55436479 </i>
    <i name="e_0_energy">   -598.75573052 </i>
   </energy>
  </scstep>
  <scstep>
   <time name="dav">   27.50   27.54</time>
   <time name="total">   28.47   28.50</time>
   <dipole>
    <v name="dipole">      0.00000000       0.00000000      10.73199275 </v>
    <i name="Tr[quadrupol]">  -7363.17953701 </i>
    <i name="Echarged">      0.00000000 </i>
    <i name="Edipol_quadrupol">      0.00000000 </i>
    <i name="Eion">      0.00000000 </i>
   </dipole>
   <energy>
    <i name="e_fr_energy">   -566.93145559 </i>
    <i name="e_wo_entrp">   -566.42410431 </i>
    <i name="e_0_energy">   -566.67777995 </i>
   </energy>
  </scstep>
  <scstep>
   <time name="dav">   30.22   30.26</time>
   <time name="total">   31.20   31.25</time>
   <dipole>
    <v name="dipole">      0.00000000       0.00000000       9.13027757 </v>
    <i name="Tr[quadrupol]">  -7383.04376825 </i>
    <i name="Echarged">      0.00000000 </i>
    <i name="Edipol_quadrupol">      0.00000000 </i>
    <i name="Eion">      0.00000000 </i>
   </dipole>
   <energy>
    <i name="e_fr_energy">   -574.65556976 </i>
    <i name="e_wo_entrp">   -574.12586333 </i>
    <i name="e_0_energy">   -574.39071655 </i>
   </energy>
  </scstep>
  <scstep>
   <time name="dav">   31.63   31.67</time>
   <time name="total">   32.60   32.64</time>
   <dipole>
    <v name="dipole">      0.00000000       0.00000000       8.46186366 </v>
    <i name="Tr[quadrupol]">  -7394.61758614 </i>
    <i name="Echarged">      0.00000000 </i>
    <i name="Edipol_quadrupol">      0.00000000 </i>
    <i name="Eion">      0.00000000 </i>
   </dipole>
   <energy>
    <i name="e_fr_energy">   -573.15340611 </i>
    <i name="e_wo_entrp">   -572.65535819 </i>
    <i name="e_0_energy">   -572.90438215 </i>
   </energy>
  </scstep>
  <scstep>
   <time name="dav">   29.21   29.24</time>
   <time name="total">   30.18   30.22</time>
   <dipole>
    <v name="dipole">      0.00000000       0.00000000       8.27853350 </v>
    <i name="Tr[quadrupol]">  -7403.95672973 </i>
    <i name="Echarged">      0.00000000 </i>
    <i name="Edipol_quadrupol">      0.00000000 </i>
    <i name="Eion">      0.00000000 </i>
   </dipole>
   <energy>
    <i name="e_fr_energy">   -561.90695279 </i>
    <i name="e_wo_entrp">   -561.39330102 </i>
    <i name="e_0_energy">   -561.65012691 </i>
   </energy>
  </scstep>
  <scstep>
   <time name="dav">   29.13   29.17</time>
   <time name="total">   30.11   30.15</time>
   <dipole>
    <v name="dipole">      0.00000000       0.00000000       7.07314165 </v>
    <i name="Tr[quadrupol]">  -7422.60170506 </i>
    <i name="Echarged">      0.00000000 </i>
    <i name="Edipol_quadrupol">      0.00000000 </i>
    <i name="Eion">      0.00000000 </i>
   </dipole>
   <energy>
    <i name="e_fr_energy">   -565.96795872 </i>
    <i name="e_wo_entrp">   -565.44966965 </i>
    <i name="e_0_energy">   -565.70881418 </i>
   </energy>
  </scstep>
  <scstep>
   <time name="dav">   27.98   28.02</time>
   <time name="total">   28.95   28.99</time>
   <dipole>
    <v name="dipole">      0.00000000       0.00000000       6.58849891 </v>
    <i name="Tr[quadrupol]">  -7434.39592313 </i>
    <i name="Echarged">      0.00000000 </i>
    <i name="Edipol_quadrupol">      0.00000000 </i>
    <i name="Eion">      0.00000000 </i>
   </dipole>
   <energy>
    <i name="e_fr_energy">   -557.54056661 </i>
    <i name="e_wo_entrp">   -557.04102983 </i>
    <i name="e_0_energy">   -557.29079822 </i>
   </energy>
  </scstep>
  <scstep>
   <time name="dav">   29.66   29.71</time>
   <time name="total">   30.64   30.68</time>
   <dipole>
    <v name="dipole">      0.00000000       0.00000000       6.18778786 </v>
    <i name="Tr[quadrupol]">  -7442.79629291 </i>
    <i name="Echarged">      0.00000000 </i>
    <i name="Edipol_quadrupol">      0.00000000 </i>
    <i name="Eion">      0.00000000 </i>
   </dipole>
   <energy>
    <i name="e_fr_energy">   -555.27408196 </i>
    <i name="e_wo_entrp">   -554.77372295 </i>
    <i name="e_0_energy">   -555.02390245 </i>
   </energy>
  </scstep>
  <scstep>
   <time name="dav">   29.63   29.67</time>
   <time name="total">   30.61   30.66</time>
   <dipole>
    <v name="dipole">      0.00000000       0.00000000       5.80065563 </v>
    <i name="Tr[quadrupol]">  -7452.67187279 </i>
    <i name="Echarged">      0.00000000 </i>
    <i name="Edipol_quadrupol">      0.00000000 </i>
    <i name="Eion">      0.00000000 </i>
   </dipole>
   <energy>
    <i name="e_fr_energy">   -551.56208102 </i>
    <i name="e_wo_entrp">   -551.06492377 </i>
    <i name="e_0_energy">   -551.31350240 </i>
   </energy>
  </scstep>
  <scstep>
   <time name="dav">   30.61   30.65</time>
   <time name="total">   31.58   31.62</time>
   <dipole>
    <v name="dipole">      0.00000000       0.00000000       5.73177396 </v>
    <i name="Tr[quadrupol]">  -7457.18911819 </i>
    <i name="Echarged">      0.00000000 </i>
    <i name="Edipol_quadrupol">      0.00000000 </i>
    <i name="Eion">      0.00000000 </i>
   </dipole>
   <energy>
    <i name="e_fr_energy">   -547.63569116 </i>
    <i name="e_wo_entrp">   -547.14572608 </i>
    <i name="e_0_energy">   -547.39070862 </i>
   </energy>
  </scstep>
  <scstep>
   <time name="dav">   29.14   29.17</time>
   <time name="total">   30.10   30.13</time>
   <dipole>
    <v name="dipole">      0.00000000       0.00000000       5.99353215 </v>
    <i name="Tr[quadrupol]">  -7453.37691665 </i>
    <i name="Echarged">      0.00000000 </i>
    <i name="Edipol_quadrupol">      0.00000000 </i>
    <i name="Eion">      0.00000000 </i>
   </dipole>
   <energy>
    <i name="e_fr_energy">   -544.88072533 </i>
    <i name="e_wo_entrp">   -544.40777595 </i>
    <i name="e_0_energy">   -544.64425064 </i>
   </energy>
  </scstep>
  <scstep>
   <time name="dav">   29.91   29.94</time>
   <time name="total">   30.87   30.91</time>
   <dipole>
    <v name="dipole">      0.00000000       0.00000000       5.83695830 </v>
    <i name="Tr[quadrupol]">  -7456.16414150 </i>
    <i name="Echarged">      0.00000000 </i>
    <i name="Edipol_quadrupol">      0.00000000 </i>
    <i name="Eion">      0.00000000 </i>
   </dipole>
   <energy>
    <i name="e_fr_energy">   -544.37989418 </i>
    <i name="e_wo_entrp">   -543.89850175 </i>
    <i name="e_0_energy">   -544.13919796 </i>
[...]
       <r>   -11.5241     0.0000    48.0000 </r>
       <r>   -11.4179     0.0000    48.0000 </r>
       <r>   -11.3117     0.0000    48.0000 </r>
       <r>   -11.2056     0.0000    48.0000 </r>
       <r>   -11.0994     0.0000    48.0000 </r>
       <r>   -10.9932     0.0000    48.0000 </r>
       <r>   -10.8870     0.0000    48.0000 </r>
       <r>   -10.7809     0.0000    48.0000 </r>
       <r>   -10.6747     0.0000    48.0000 </r>
       <r>   -10.5685     0.0000    48.0000 </r>
       <r>   -10.4624     0.0000    48.0000 </r>
       <r>   -10.3562     0.0000    48.0000 </r>
       <r>   -10.2500     0.0000    48.0000 </r>
       <r>   -10.1439     0.0000    48.0000 </r>
       <r>   -10.0377     0.0005    48.0001 </r>
       <r>    -9.9315     0.1040    48.0111 </r>
       <r>    -9.8253     2.8199    48.3105 </r>
       <r>    -9.7192    13.0004    49.6907 </r>
       <r>    -9.6130    20.2217    51.8377 </r>
       <r>    -9.5068    27.0336    54.7079 </r>
       <r>    -9.4007    37.8903    58.7307 </r>
       <r>    -9.2945    42.9717    63.2930 </r>
       <r>    -9.1883    37.1823    67.2407 </r>
       <r>    -9.0821    17.7582    69.1261 </r>
       <r>    -8.9760    14.9441    70.7127 </r>
       <r>    -8.8698    16.6858    72.4843 </r>
       <r>    -8.7636    22.6934    74.8936 </r>
       <r>    -8.6575    22.1926    77.2498 </r>
       <r>    -8.5513    44.3417    81.9576 </r>
       <r>    -8.4451    39.1111    86.1101 </r>
       <r>    -8.3390    22.2990    88.4776 </r>
       <r>    -8.2328    23.5788    90.9809 </r>
       <r>    -8.1266    28.0505    93.9591 </r>
       <r>    -8.0204    25.7026    96.6879 </r>
       <r>    -7.9143    23.0266    99.1327 </r>
       <r>    -7.8081    15.8322   100.8136 </r>
       <r>    -7.7019     5.9081   101.4408 </r>
       <r>    -7.5958     6.5920   102.1407 </r>
       <r>    -7.4896    10.9570   103.3040 </r>
       <r>    -7.3834    12.4760   104.6286 </r>
       <r>    -7.2772    10.4553   105.7387 </r>
       <r>    -7.1711     8.1985   106.6091 </r>
       <r>    -7.0649    12.6482   107.9520 </r>
       <r>    -6.9587    16.8032   109.7360 </r>
       <r>    -6.8526    22.2868   112.1022 </r>
       <r>    -6.7464    41.9004   116.5508 </r>
       <r>    -6.6402    41.6482   120.9726 </r>
       <r>    -6.5341    29.5830   124.1134 </r>
       <r>    -6.4279    40.9971   128.4661 </r>
       <r>    -6.3217    57.0561   134.5238 </r>
       <r>    -6.2155    48.8466   139.7098 </r>
       <r>    -6.1094    56.2130   145.6780 </r>
       <r>    -6.0032    80.9569   154.2732 </r>
       <r>    -5.8970    95.3781   164.3996 </r>
       <r>    -5.7909    93.3695   174.3127 </r>
       <r>    -5.6847    83.3259   183.1594 </r>
       <r>    -5.5785    71.1080   190.7090 </r>
       <r>    -5.4724    49.2746   195.9405 </r>
       <r>    -5.3662    38.6473   200.0437 </r>
       <r>    -5.2600    46.6505   204.9966 </r>
       <r>    -5.1538    57.8053   211.1338 </r>
       <r>    -5.0477    59.4466   217.4453 </r>
       <r>    -4.9415    50.8732   222.8465 </r>
       <r>    -4.8353    44.1555   227.5346 </r>
       <r>    -4.7292    41.5997   231.9512 </r>
       <r>    -4.6230    69.1079   239.2884 </r>
       <r>    -4.5168    93.6016   249.2262 </r>
       <r>    -4.4106    82.0484   257.9373 </r>
       <r>    -4.3045    55.7834   263.8598 </r>
       <r>    -4.1983    42.9126   268.4159 </r>
       <r>    -4.0921    59.2749   274.7091 </r>
       <r>    -3.9860    82.1358   283.4295 </r>
       <r>    -3.8798    71.9628   291.0699 </r>
       <r>    -3.7736    76.5035   299.1923 </r>
       <r>    -3.6675    85.8720   308.3094 </r>
       <r>    -3.5613    85.9974   317.4397 </r>
       <r>    -3.4551   120.2081   330.2023 </r>
       <r>    -3.3489   133.5068   344.3768 </r>
       <r>    -3.2428   124.5704   357.6025 </r>
       <r>    -3.1366   118.5027   370.1840 </r>
       <r>    -3.0304   102.4952   381.0659 </r>
       <r>    -2.9243    95.6426   391.2204 </r>
       <r>    -2.8181    95.1821   401.3259 </r>
       <r>    -2.7119    83.9405   410.2379 </r>
       <r>    -2.6057    69.8290   417.6517 </r>
       <r>    -2.4996    53.4494   423.3264 </r>
       <r>    -2.3934    47.6055   428.3807 </r>
       <r>    -2.2872    49.2659   433.6113 </r>
       <r>    -2.1811    61.0581   440.0939 </r>
       <r>    -2.0749    69.8994   447.5151 </r>
       <r>    -1.9687    74.8173   455.4585 </r>
       <r>    -1.8626    74.9954   463.4208 </r>
       <r>    -1.7564    71.5332   471.0155 </r>
       <r>    -1.6502    55.5012   476.9081 </r>
       <r>    -1.5440    47.6924   481.9717 </r>
       <r>    -1.4379    51.3491   487.4234 </r>
       <r>    -1.3317    41.8227   491.8637 </r>
       <r>    -1.2255    44.7964   496.6198 </r>
       <r>    -1.1194    57.1621   502.6887 </r>
       <r>    -1.0132    59.6156   509.0182 </r>
       <r>    -0.9070    65.6786   515.9913 </r>
       <r>    -0.8008    70.8361   523.5120 </r>
       <r>    -0.6947    78.0603   531.7997 </r>
       <r>    -0.5885    93.9403   541.7734 </r>
       <r>    -0.4823    87.6937   551.0839 </r>
       <r>    -0.3762    72.5098   558.7823 </r>
       <r>    -0.2700    56.7439   564.8068 </r>
       <r>    -0.1638    47.9929   569.9022 </r>
       <r>    -0.0577    29.9283   573.0797 </r>
       <r>     0.0485    16.1248   574.7917 </r>
       <r>     0.1547    14.4173   576.3224 </r>
       <r>     0.2609    10.7867   577.4676 </r>
       <r>     0.3670    12.2636   578.7697 </r>
       <r>     0.4732    15.7688   580.4438 </r>
       <r>     0.5794    14.3289   581.9651 </r>
       <r>     0.6855    14.7957   583.5360 </r>
       <r>     0.7917    15.3670   585.1675 </r>
       <r>     0.8979     7.1583   585.9275 </r>
       <r>     1.0040     7.1310   586.6846 </r>
       <r>     1.1102    11.7561   587.9328 </r>
       <r>     1.2164    18.2609   589.8715 </r>
       <r>     1.3226    19.9518   591.9898 </r>
       <r>     1.4287    12.6898   593.3371 </r>
       <r>     1.5349     7.7771   594.1628 </r>
       <r>     1.6411    12.7801   595.5197 </r>
       <r>     1.7472    22.3758   597.8953 </r>
       <r>     1.8534    16.8905   599.6886 </r>
       <r>     1.9596     7.3577   600.4698 </r>
       <r>     2.0658     7.8468   601.3029 </r>
       <r>     2.1719    11.0112   602.4719 </r>
       <r>     2.2781    16.9921   604.2760 </r>
       <r>     2.3843    17.4557   606.1293 </r>
       <r>     2.4904    21.7603   608.4396 </r>
       <r>     2.5966    23.1822   610.9008 </r>
       <r>     2.7028    18.3915   612.8535 </r>
       <r>     2.8089    20.4657   615.0263 </r>
       <r>     2.9151    19.0297   617.0467 </r>
       <r>     3.0213    17.8100   618.9376 </r>
       <r>     3.1275    18.9581   620.9504 </r>
       <r>     3.2336    17.9347   622.8545 </r>
       <r>     3.3398    20.7512   625.0577 </r>
       <r>     3.4460    21.9394   627.3870 </r>
       <r>     3.5521    20.9093   629.6070 </r>
       <r>     3.6583    25.6906   632.3346 </r>
       <r>     3.7645    24.5859   634.9449 </r>
       <r>     3.8707    22.5217   637.3360 </r>
       <r>     3.9768    18.7811   639.3300 </r>
       <r>     4.0830    16.6102   641.0935 </r>
       <r>     4.1892    20.5797   643.2785 </r>
       <r>     4.2953    26.4631   646.0881 </r>
       <r>     4.4015    31.0990   649.3899 </r>
       <r>     4.5077    29.0818   652.4775 </r>
       <r>     4.6138    29.4208   655.6011 </r>
       <r>     4.7200    24.0711   658.1567 </r>
       <r>     4.8262    16.5071   659.9093 </r>
       <r>     4.9324    12.7017   661.2579 </r>
       <r>     5.0385     6.0404   661.8992 </r>
       <r>     5.1447     0.9212   661.9970 </r>
       <r>     5.2509     0.0283   662.0000 </r>
       <r>     5.3570     0.0001   662.0000 </r>
       <r>     5.4632     0.0000   662.0000 </r>
       <r>     5.5694     0.0000   662.0000 </r>
       <r>     5.6756     0.0000   662.0000 </r>
       <r>     5.7817     0.0000   662.0000 </r>
       <r>     5.8879     0.0000   662.0000 </r>
       <r>     5.9941     0.0000   662.0000 </r>
       <r>     6.1002     0.0000   662.0000 </r>
       <r>     6.2064     0.0000   662.0000 </r>
       <r>     6.3126     0.0000   662.0000 </r>
       <r>     6.4187     0.0000   662.0000 </r>
      </set>
     </set>
    </array>
   </total>
  </dos>
 </calculation>
 <structure name="finalpos" >
  <crystal>
   <varray name="basis" >
    <v>       8.34588864       0.00000000       0.00000000 </v>
    <v>       0.00000000       9.63700211       0.00000000 </v>
    <v>       0.00000000       0.00000000      32.54292636 </v>
   </varray>
   <i name="volume">   2617.40629817 </i>
   <varray name="rec_basis" >
    <v>       0.11981948       0.00000000       0.00000000 </v>
    <v>       0.00000000       0.10376671       0.00000000 </v>
    <v>       0.00000000       0.00000000       0.03072864 </v>
   </varray>
  </crystal>
  <varray name="positions" >
   <v>       0.98665887       0.10915620       0.48107975 </v>
   <v>       0.84153767       0.70022385       0.49117703 </v>
   <v>       0.55958478       0.62258593       0.43896252 </v>
   <v>       0.77522657       0.00447804       0.43978642 </v>
   <v>       0.39300588       0.06265051       0.46063674 </v>
   <v>       0.39883220       0.22794472       0.45566283 </v>
   <v>       0.21095486       0.20159152       0.62726473 </v>
   <v>       0.97228083       0.94162509       0.47890743 </v>
   <v>       0.62613817       0.10738664       0.56592971 </v>
   <v>       0.76217817       0.62543221       0.52731833 </v>
   <v>       0.20531696       0.43276089       0.52579053 </v>
   <v>       0.83989427       0.33138912       0.49745485 </v>
   <v>       0.55767034       0.12785979       0.51932488 </v>
   <v>       0.60786759       0.89609055       0.63673385 </v>
   <v>       0.94667364       0.71480267       0.64751876 </v>
   <v>       0.05895447       0.19990384       0.65493643 </v>
   <v>       0.51642892       0.08091628       0.74633343 </v>
   <v>       0.35405427       0.09365420       0.72261929 </v>
   <v>       0.50324135       0.53475936       0.65110120 </v>
   <v>       0.56595972       0.31877617       0.71363180 </v>
   <v>       0.17572115       0.55379996       0.64634846 </v>
   <v>       0.02597744       0.88210291       0.74295380 </v>
   <v>       0.73446769       0.15542746       0.63772592 </v>
   <v>       0.77489906       0.30588743       0.63647590 </v>
   <v>       0.02816163       0.65990838       0.43082258 </v>
   <v>       0.31758664       0.86451216       0.49697259 </v>
   <v>       0.60105255       0.04472976       0.44106586 </v>
   <v>       0.59270671       0.64004295       0.48246259 </v>
   <v>       0.22279216       0.40642645       0.43849016 </v>
   <v>       0.34956925       0.48454055       0.46208809 </v>
   <v>       0.44438488       0.50460533       0.56603867 </v>
   <v>       0.09882314       0.76643116       0.46244609 </v>
   <v>       0.22573518       0.77855409       0.56645065 </v>
   <v>       0.37650262       0.79371216       0.45772195 </v>
   <v>       0.51123436       0.89002113       0.59948893 </v>
   <v>       0.81638360       0.73278069       0.61356675 </v>
   <v>       0.18452375       0.92929918       0.57243256 </v>
   <v>       0.05823592       0.46888818       0.55347119 </v>
   <v>       0.79524948       0.22682321       0.53220929 </v>
   <v>       0.54765242       0.37269178       0.55625914 </v>
   <v>       0.98105467       0.60460236       0.70864866 </v>
   <v>       0.79501295       0.57297276       0.69436700 </v>
   <v>       0.94452142       0.90173472       0.67664686 </v>
   <v>       0.61380604       0.47928932       0.61686659 </v>
   <v>       0.56492876       0.32766190       0.73663042 </v>
   <v>       0.19715267       0.43325924       0.67485447 </v>
   <v>       0.52015694       0.91288257       0.69871722 </v>
   <v>       0.61242549       0.76184536       0.70453028 </v>
   <v>       0.73595777       0.69915657       0.50686858 </v>
   <v>       0.49743354       0.61860386       0.46453284 </v>
   <v>       0.27394265       0.40264137       0.46549210 </v>
   <v>       0.93289797       0.02738210       0.46969946 </v>
   <v>       0.47067110       0.06946015       0.71848950 </v>
   <v>       0.89195935       0.26663069       0.51600372 </v>
   <v>       0.17486579       0.48822684       0.55044211 </v>
   <v>       0.17315020       0.21964525       0.65480732 </v>
   <v>       0.60292302       0.17309174       0.54367992 </v>
   <v>       0.61405523       0.53189908       0.64424285 </v>
   <v>       0.05929758       0.95589500       0.72356878 </v>
   <v>       0.81663769       0.21746727       0.62876597 </v>
   <v>       0.32810030       0.88468477       0.46729665 </v>
   <v>       0.67085142       0.97306542       0.42820054 </v>
   <v>       0.46744308       0.14358818       0.46171493 </v>
   <v>       0.00263050       0.70543589       0.45729388 </v>
   <v>       0.88331493       0.64376476       0.69503702 </v>
   <v>       0.92988441       0.73677823       0.61770342 </v>
   <v>       0.58890918       0.95225426       0.61170368 </v>
   <v>       0.55437314       0.46777121       0.56678899 </v>
   <v>       0.26315138       0.87110226       0.55898007 </v>
   <v>       0.90764846       0.96576918       0.69736179 </v>
   <v>       0.20771122       0.53829376       0.67443508 </v>
   <v>       0.54087674       0.81902052       0.68663542 </v>
   <v>       0.16666667       0.08333333       0.21910656 </v>
   <v>       0.50000000       0.08333333       0.21910656 </v>
   <v>       0.83333333       0.08333333       0.21910656 </v>
   <v>       0.00000000       0.33333333       0.21910656 </v>
   <v>       0.33333333       0.33333333       0.21910656 </v>
   <v>       0.66666667       0.33333333       0.21910656 </v>
   <v>       0.16666667       0.58333333       0.21910656 </v>
   <v>       0.50000000       0.58333333       0.21910656 </v>
   <v>       0.83333333       0.58333333       0.21910656 </v>
   <v>       0.00000000       0.83333333       0.21910656 </v>
   <v>       0.33333333       0.83333333       0.21910656 </v>
   <v>       0.66666667       0.83333333       0.21910656 </v>
   <v>       0.00000000       0.16666667       0.28890555 </v>
   <v>       0.33333333       0.16666667       0.28890555 </v>
   <v>       0.66666667       0.16666667       0.28890555 </v>
   <v>       0.16666667       0.41666667       0.28890555 </v>
   <v>       0.50000000       0.41666667       0.28890555 </v>
   <v>       0.83333333       0.41666667       0.28890555 </v>
   <v>       0.00000000       0.66666667       0.28890555 </v>
   <v>       0.33333333       0.66666667       0.28890555 </v>
   <v>       0.66666667       0.66666667       0.28890555 </v>
   <v>       0.16666667       0.91666667       0.28890555 </v>
   <v>       0.50000000       0.91666667       0.28890555 </v>
   <v>       0.83333333       0.91666667       0.28890555 </v>
   <v>       0.00137279       0.01185954       0.36461254 </v>
   <v>       0.33290569       0.00592647       0.35818502 </v>
   <v>       0.66415140       0.00707981       0.36154021 </v>
   <v>       0.16002884       0.26038513       0.36116747 </v>
   <v>       0.49919996       0.25511619       0.35925190 </v>
   <v>       0.83251693       0.25611789       0.36041563 </v>
   <v>       0.00195286       0.50919856       0.36219696 </v>
   <v>       0.33645575       0.50972269       0.36124221 </v>
   <v>       0.66017765       0.50575679       0.36411895 </v>
   <v>       0.16379605       0.75669650       0.35971949 </v>
   <v>       0.50118493       0.75196970       0.35752041 </v>
   <v>       0.83370754       0.75526050       0.36449520 </v>
  </varray>
  <varray name="selective"  type="logical" >
   <v type="logical" >  T  T  T </v>
   <v type="logical" >  T  T  T </v>
   <v type="logical" >  T  T  T </v>
   <v type="logical" >  T  T  T </v>
   <v type="logical" >  T  T  T </v>
   <v type="logical" >  T  T  T </v>
   <v type="logical" >  T  T  T </v>
   <v type="logical" >  T  T  T </v>
   <v type="logical" >  T  T  T </v>
   <v type="logical" >  T  T  T </v>
   <v type="logical" >  T  T  T </v>
   <v type="logical" >  T  T  T </v>
   <v type="logical" >  T  T  T </v>
   <v type="logical" >  T  T  T </v>
   <v type="logical" >  T  T  T </v>
   <v type="logical" >  T  T  T </v>
   <v type="logical" >  T  T  T </v>
   <v type="logical" >  T  T  T </v>
   <v type="logical" >  T  T  T </v>
   <v type="logical" >  T  T  T </v>
   <v type="logical" >  T  T  T </v>
   <v type="logical" >  T  T  T </v>
   <v type="logical" >  T  T  T </v>
   <v type="logical" >  T  T  T </v>
   <v type="logical" >  T  T  T </v>
   <v type="logical" >  T  T  T </v>
   <v type="logical" >  T  T  T </v>
   <v type="logical" >  T  T  T </v>
   <v type="logical" >  T  T  T </v>
   <v type="logical" >  T  T  T </v>
   <v type="logical" >  T  T  T </v>
   <v type="logical" >  T  T  T </v>
   <v type="logical" >  T  T  T </v>
   <v type="logical" >  T  T  T </v>
   <v type="logical" >  T  T  T </v>
   <v type="logical" >  T  T  T </v>
   <v type="logical" >  T  T  T </v>
   <v type="logical" >  T  T  T </v>
   <v type="logical" >  T  T  T </v>
   <v type="logical" >  T  T  T </v>
   <v type="logical" >  T  T  T </v>
   <v type="logical" >  T  T  T </v>
   <v type="logical" >  T  T  T </v>
   <v type="logical" >  T  T  T </v>
   <v type="logical" >  T  T  T </v>
   <v type="logical" >  T  T  T </v>
   <v type="logical" >  T  T  T </v>
   <v type="logical" >  T  T  T </v>
   <v type="logical" >  T  T  T </v>
   <v type="logical" >  T  T  T </v>
   <v type="logical" >  T  T  T </v>
   <v type="logical" >  T  T  T </v>
   <v type="logical" >  T  T  T </v>
   <v type="logical" >  T  T  T </v>
   <v type="logical" >  T  T  T </v>
   <v type="logical" >  T  T  T </v>
   <v type="logical" >  T  T  T </v>
   <v type="logical" >  T  T  T </v>
   <v type="logical" >  T  T  T </v>
   <v type="logical" >  T  T  T </v>
   <v type="logical" >  T  T  T </v>
   <v type="logical" >  T  T  T </v>
   <v type="logical" >  T  T  T </v>
   <v type="logical" >  T  T  T </v>
   <v type="logical" >  T  T  T </v>
   <v type="logical" >  T  T  T </v>
   <v type="logical" >  T  T  T </v>
   <v type="logical" >  T  T  T </v>
   <v type="logical" >  T  T  T </v>
   <v type="logical" >  T  T  T </v>
   <v type="logical" >  T  T  T </v>
   <v type="logical" >  T  T  T </v>
   <v type="logical" >  F  F  F </v>
   <v type="logical" >  F  F  F </v>
   <v type="logical" >  F  F  F </v>
   <v type="logical" >  F  F  F </v>
   <v type="logical" >  F  F  F </v>
   <v type="logical" >  F  F  F </v>
   <v type="logical" >  F  F  F </v>
   <v type="logical" >  F  F  F </v>
   <v type="logical" >  F  F  F </v>
   <v type="logical" >  F  F  F </v>
   <v type="logical" >  F  F  F </v>
   <v type="logical" >  F  F  F </v>
   <v type="logical" >  F  F  F </v>
   <v type="logical" >  F  F  F </v>
   <v type="logical" >  F  F  F </v>
   <v type="logical" >  F  F  F </v>
   <v type="logical" >  F  F  F </v>
   <v type="logical" >  F  F  F </v>
   <v type="logical" >  F  F  F </v>
   <v type="logical" >  F  F  F </v>
   <v type="logical" >  F  F  F </v>
   <v type="logical" >  F  F  F </v>
   <v type="logical" >  F  F  F </v>
   <v type="logical" >  F  F  F </v>
   <v type="logical" >  T  T  T </v>
   <v type="logical" >  T  T  T </v>
   <v type="logical" >  T  T  T </v>
   <v type="logical" >  T  T  T </v>
   <v type="logical" >  T  T  T </v>
   <v type="logical" >  T  T  T </v>
   <v type="logical" >  T  T  T </v>
   <v type="logical" >  T  T  T </v>
   <v type="logical" >  T  T  T </v>
   <v type="logical" >  T  T  T </v>
   <v type="logical" >  T  T  T </v>
   <v type="logical" >  T  T  T </v>
  </varray>
  <nose>
   <v>      -3.00000000       0.00000000       0.00010000       0.00010000 </v>
  </nose>
 </structure>
</modeling>
