CuH2O                                   
           1
     8.345889    0.000000    0.000000
     0.000000    9.637002    0.000000
     0.000000    0.000000   32.542926
   H    O    Pt
  48  24  36
Direct configuration=     1
   0.98665887  0.10915620  0.48107975
   0.84153767  0.70022385  0.49117703
   0.55958478  0.62258593  0.43896252
   0.77522657  0.00447804  0.43978642
   0.39300588  0.06265051  0.46063674
   0.39883220  0.22794472  0.45566283
   0.21095486  0.20159152  0.62726473
   0.97228083  0.94162509  0.47890743
   0.62613817  0.10738664  0.56592971
   0.76217817  0.62543221  0.52731833
   0.20531696  0.43276089  0.52579053
   0.83989427  0.33138912  0.49745485
   0.55767034  0.12785979  0.51932488
   0.60786759  0.89609055  0.63673385
   0.94667364  0.71480267  0.64751876
   0.05895447  0.19990384  0.65493643
   0.51642892  0.08091628  0.74633343
   0.35405427  0.09365420  0.72261929
   0.50324135  0.53475936  0.65110120
   0.56595972  0.31877617  0.71363180
   0.17572115  0.55379996  0.64634846
   0.02597744  0.88210291  0.74295380
   0.73446769  0.15542746  0.63772592
   0.77489906  0.30588743  0.63647590
   0.02816163  0.65990838  0.43082258
   0.31758664  0.86451216  0.49697259
   0.60105255  0.04472976  0.44106586
   0.59270671  0.64004295  0.48246259
   0.22279216  0.40642645  0.43849016
   0.34956925  0.48454055  0.46208809
   0.44438488  0.50460533  0.56603867
   0.09882314  0.76643116  0.46244609
   0.22573518  0.77855409  0.56645065
   0.37650262  0.79371216  0.45772195
   0.51123436  0.89002113  0.59948893
   0.81638360  0.73278069  0.61356675
   0.18452375  0.92929918  0.57243256
   0.05823592  0.46888818  0.55347119
   0.79524948  0.22682321  0.53220929
   0.54765242  0.37269178  0.55625914
   0.98105467  0.60460236  0.70864866
   0.79501295  0.57297276  0.69436700
   0.94452142  0.90173472  0.67664686
   0.61380604  0.47928932  0.61686659
   0.56492876  0.32766190  0.73663042
   0.19715267  0.43325924  0.67485447
   0.52015694  0.91288257  0.69871722
   0.61242549  0.76184536  0.70453028
   0.73595777  0.69915657  0.50686858
   0.49743354  0.61860386  0.46453284
   0.27394265  0.40264137  0.46549210
   0.93289797  0.02738210  0.46969946
   0.47067110  0.06946015  0.71848950
   0.89195935  0.26663069  0.51600372
   0.17486579  0.48822684  0.55044211
   0.17315020  0.21964525  0.65480732
   0.60292302  0.17309174  0.54367992
   0.61405523  0.53189908  0.64424285
   0.05929758  0.95589500  0.72356878
   0.81663769  0.21746727  0.62876597
   0.32810030  0.88468477  0.46729665
   0.67085142  0.97306542  0.42820054
   0.46744308  0.14358818  0.46171493
   0.00263050  0.70543589  0.45729388
   0.88331493  0.64376476  0.69503702
   0.92988441  0.73677823  0.61770342
   0.58890918  0.95225426  0.61170368
   0.55437314  0.46777121  0.56678899
   0.26315138  0.87110226  0.55898007
   0.90764846  0.96576918  0.69736179
   0.20771122  0.53829376  0.67443508
   0.54087674  0.81902052  0.68663542
   0.16666667  0.08333333  0.21910656
   0.50000000  0.08333333  0.21910656
   0.83333333  0.08333333  0.21910656
   0.00000000  0.33333333  0.21910656
   0.33333333  0.33333333  0.21910656
   0.66666667  0.33333333  0.21910656
   0.16666667  0.58333333  0.21910656
   0.50000000  0.58333333  0.21910656
   0.83333333  0.58333333  0.21910656
   0.00000000  0.83333333  0.21910656
   0.33333333  0.83333333  0.21910656
   0.66666667  0.83333333  0.21910656
   0.00000000  0.16666667  0.28890555
   0.33333333  0.16666667  0.28890555
   0.66666667  0.16666667  0.28890555
   0.16666667  0.41666667  0.28890555
   0.50000000  0.41666667  0.28890555
   0.83333333  0.41666667  0.28890555
   0.00000000  0.66666667  0.28890555
   0.33333333  0.66666667  0.28890555
   0.66666667  0.66666667  0.28890555
   0.16666667  0.91666667  0.28890555
   0.50000000  0.91666667  0.28890555
   0.83333333  0.91666667  0.28890555
   0.00137279  0.01185954  0.36461254
   0.33290569  0.00592647  0.35818502
   0.66415140  0.00707981  0.36154021
   0.16002884  0.26038513  0.36116747
   0.49919996  0.25511619  0.35925190
   0.83251693  0.25611789  0.36041563
   0.00195286  0.50919856  0.36219696
   0.33645575  0.50972269  0.36124221
   0.66017765  0.50575679  0.36411895
   0.16379605  0.75669650  0.35971949
   0.50118493  0.75196970  0.35752041
   0.83370754  0.75526050  0.36449520
