 vasp.5.4.4.18Apr17-6-g9f103f2a35 (build Feb 25 2019 10:51:38) complex          
  
 executed on             LinuxIFC date 2020.03.19  19:59:24
 running on   24 total cores
 distrk:  each k-point on   24 cores,    1 groups
 distr:  one band on NCORES_PER_BAND=  24 cores,    1 groups


--------------------------------------------------------------------------------------------------------


 INCAR:
 POTCAR:    PAW_PBE H 15Jun2001                   
 POTCAR:    PAW_PBE O 08Apr2002                   
 POTCAR:    PAW_PBE Pt 04Feb2005                  

 ----------------------------------------------------------------------------- 
|                                                                             |
|           W    W    AA    RRRRR   N    N  II  N    N   GGGG   !!!           |
|           W    W   A  A   R    R  NN   N  II  NN   N  G    G  !!!           |
|           W    W  A    A  R    R  N N  N  II  N N  N  G       !!!           |
|           W WW W  AAAAAA  RRRRR   N  N N  II  N  N N  G  GGG   !            |
|           WW  WW  A    A  R   R   N   NN  II  N   NN  G    G                |
|           W    W  A    A  R    R  N    N  II  N    N   GGGG   !!!           |
|                                                                             |
|      For optimal performance we recommend to set                            |
|        NCORE= 4 - approx SQRT( number of cores)                             |
|      NCORE specifies how many cores store one orbital (NPAR=cpu/NCORE).     |
|      This setting can  greatly improve the performance of VASP for DFT.     |
|      The default,   NCORE=1            might be grossly inefficient         |
|      on modern multi-core architectures or massively parallel machines.     |
|      Do your own testing !!!!                                               |
|      Unfortunately you need to use the default for GW and RPA calculations. |
|      (for HF NCORE is supported but not extensively tested yet)             |
|                                                                             |
 ----------------------------------------------------------------------------- 

 POTCAR:    PAW_PBE H 15Jun2001                   
   VRHFIN =H: ultrasoft test                                                    
   LEXCH  = PE                                                                  
   EATOM  =    12.4884 eV,    0.9179 Ry                                         
                                                                                
   TITEL  = PAW_PBE H 15Jun2001                                                 
   LULTRA =        F    use ultrasoft PP ?                                      
   IUNSCR =        0    unscreen: 0-lin 1-nonlin 2-no                           
   RPACOR =    0.000    partial core radius                                     
   POMASS =    1.000; ZVAL   =    1.000    mass and valenz                      
   RCORE  =    1.100    outmost cutoff radius                                   
   RWIGS  =    0.700; RWIGS  =    0.370    wigner-seitz radius (au A)           
   ENMAX  =  250.000; ENMIN  =  200.000 eV                                      
   RCLOC  =    0.701    cutoff for local pot                                    
   LCOR   =        T    correct aug charges                                     
   LPAW   =        T    paw PP                                                  
   EAUG   =  400.000                                                            
   RMAX   =    1.123    core radius for proj-oper                               
   RAUG   =    1.200    factor for augmentation sphere                          
   RDEP   =    1.112    radius for radial grids                                 
   RDEPT  =    0.926    core radius for aug-charge                              
                                                                                
   Atomic configuration                                                         
    2 entries                                                                   
     n  l   j            E        occ.                                          
     1  0  0.50        -6.4927   1.0000                                         
     2  1  0.50        -3.4015   0.0000                                         
   Description                                                                  
     l       E           TYP  RCUT    TYP  RCUT                                 
     0     -6.4927494     23  1.100                                             
     0      6.8029130     23  1.100                                             
     1     -4.0817478     23  1.100                                             
  local pseudopotential read in
  atomic valenz-charges read in
  non local Contribution for L=           0  read in
    real space projection operators read in
  non local Contribution for L=           0  read in
    real space projection operators read in
  non local Contribution for L=           1  read in
    real space projection operators read in
    PAW grid and wavefunctions read in
 
   number of l-projection  operators is LMAX  =           3
   number of lm-projection operators is LMMAX =           5
 
 POTCAR:    PAW_PBE O 08Apr2002                   
   VRHFIN =O: s2p4                                                              
   LEXCH  = PE                                                                  
   EATOM  =   432.3788 eV,   31.7789 Ry                                         
                                                                                
   TITEL  = PAW_PBE O 08Apr2002                                                 
   LULTRA =        F    use ultrasoft PP ?                                      
   IUNSCR =        1    unscreen: 0-lin 1-nonlin 2-no                           
   RPACOR =    1.200    partial core radius                                     
   POMASS =   16.000; ZVAL   =    6.000    mass and valenz                      
   RCORE  =    1.520    outmost cutoff radius                                   
   RWIGS  =    1.550; RWIGS  =    0.820    wigner-seitz radius (au A)           
   ENMAX  =  400.000; ENMIN  =  300.000 eV                                      
   ICORE  =        2    local potential                                         
   LCOR   =        T    correct aug charges                                     
   LPAW   =        T    paw PP                                                  
   EAUG   =  605.392                                                            
   DEXC   =    0.000                                                            
   RMAX   =    1.553    core radius for proj-oper                               
   RAUG   =    1.300    factor for augmentation sphere                          
   RDEP   =    1.550    radius for radial grids                                 
   RDEPT  =    1.329    core radius for aug-charge                              
                                                                                
   Atomic configuration                                                         
    4 entries                                                                   
     n  l   j            E        occ.                                          
     1  0  0.50      -514.6923   2.0000                                         
     2  0  0.50       -23.9615   2.0000                                         
     2  1  0.50        -9.0305   4.0000                                         
     3  2  1.50        -9.5241   0.0000                                         
   Description                                                                  
     l       E           TYP  RCUT    TYP  RCUT                                 
     0    -23.9615318     23  1.200                                             
     0     -9.5240782     23  1.200                                             
     1     -9.0304911     23  1.520                                             
     1      8.1634956     23  1.520                                             
     2     -9.5240782      7  1.500                                             
  local pseudopotential read in
  partial core-charges read in
  partial kinetic energy density read in
  kinetic energy density of atom read in
  atomic valenz-charges read in
  non local Contribution for L=           0  read in
    real space projection operators read in
  non local Contribution for L=           0  read in
    real space projection operators read in
  non local Contribution for L=           1  read in
    real space projection operators read in
  non local Contribution for L=           1  read in
    real space projection operators read in
    PAW grid and wavefunctions read in
 
   number of l-projection  operators is LMAX  =           4
   number of lm-projection operators is LMMAX =           8
 
 POTCAR:    PAW_PBE Pt 04Feb2005                  
   VRHFIN =Pt: s1d9                                                             
   LEXCH  = PE                                                                  
   EATOM  =   729.1176 eV,   53.5886 Ry                                         
                                                                                
   TITEL  = PAW_PBE Pt 04Feb2005                                                
   LULTRA =        F    use ultrasoft PP ?                                      
   IUNSCR =        1    unscreen: 0-lin 1-nonlin 2-no                           
   RPACOR =    2.330    partial core radius                                     
   POMASS =  195.080; ZVAL   =   10.000    mass and valenz                      
   RCORE  =    2.600    outmost cutoff radius                                   
   RWIGS  =    2.750; RWIGS  =    1.455    wigner-seitz radius (au A)           
   ENMAX  =  230.283; ENMIN  =  172.712 eV                                      
   ICORE  =        3    local potential                                         
   LCOR   =        T    correct aug charges                                     
   LPAW   =        T    paw PP                                                  
   EAUG   =  358.966                                                            
   DEXC   =    0.000                                                            
   RMAX   =    2.658    core radius for proj-oper                               
   RAUG   =    1.300    factor for augmentation sphere                          
   RDEP   =    2.761    radius for radial grids                                 
   RDEPT  =    2.203    core radius for aug-charge                              
                                                                                
   Atomic configuration                                                         
   16 entries                                                                   
     n  l   j            E        occ.                                          
     1  0  0.50    -78401.1885   2.0000                                         
     2  0  0.50    -13770.7750   2.0000                                         
     2  1  1.50    -11931.0468   6.0000                                         
     3  0  0.50     -3234.7234   2.0000                                         
     3  1  1.50     -2699.2216   6.0000                                         
     3  2  2.50     -2119.5714  10.0000                                         
     4  0  0.50      -695.1528   2.0000                                         
     4  1  1.50      -519.6034   6.0000                                         
     4  2  2.50      -306.6786  10.0000                                         
     4  3  3.50       -70.1041  14.0000                                         
     5  0  0.50      -101.7747   2.0000                                         
     5  1  1.50       -55.9873   6.0000                                         
     5  2  2.50        -6.1423   9.0000                                         
     6  0  0.50        -5.6573   1.0000                                         
     6  1  1.50        -6.8029   0.0000                                         
     5  3  2.50        -1.3606   0.0000                                         
   Description                                                                  
     l       E           TYP  RCUT    TYP  RCUT                                 
     2     -6.1423404     23  2.500                                             
     2     -7.5029230     23  2.500                                             
     0     -5.6573207     23  2.500                                             
     0      0.7416693     23  2.500                                             
     1     -2.7211652     23  2.600                                             
     1     20.4087390     23  2.600                                             
     3     -1.3605826     23  2.500                                             
  local pseudopotential read in
  partial core-charges read in
  partial kinetic energy density read in
  atomic valenz-charges read in
  non local Contribution for L=           2  read in
    real space projection operators read in
  non local Contribution for L=           2  read in
    real space projection operators read in
  non local Contribution for L=           0  read in
    real space projection operators read in
  non local Contribution for L=           0  read in
    real space projection operators read in
  non local Contribution for L=           1  read in
    real space projection operators read in
  non local Contribution for L=           1  read in
    real space projection operators read in
    PAW grid and wavefunctions read in
 
   number of l-projection  operators is LMAX  =           6
   number of lm-projection operators is LMMAX =          18
 
 Optimization of the real space projectors (new method)

 maximal supplied QI-value         = 34.20
 optimisation between [QCUT,QGAM] = [  9.92, 20.18] = [ 27.55,114.04] Ry 
 Optimized for a Real-space Cutoff    1.26 Angstroem

   l    n(q)    QCUT    max X(q) W(low)/X(q) W(high)/X(q)  e(spline) 
   0      8     9.919    19.460    0.50E-03    0.23E-03    0.29E-06
   0      8     9.919    12.209    0.48E-03    0.23E-03    0.28E-06
   1      7     9.919     4.655    0.17E-03    0.75E-03    0.30E-06
 Optimization of the real space projectors (new method)

 maximal supplied QI-value         = 24.76
 optimisation between [QCUT,QGAM] = [ 10.15, 20.30] = [ 28.85,115.39] Ry 
 Optimized for a Real-space Cutoff    1.38 Angstroem

   l    n(q)    QCUT    max X(q) W(low)/X(q) W(high)/X(q)  e(spline) 
   0      8    10.150    20.381    0.22E-03    0.32E-03    0.29E-06
   0      8    10.150    15.268    0.23E-03    0.35E-03    0.30E-06
   1      8    10.150     5.964    0.46E-03    0.53E-03    0.21E-06
   1      8    10.150     5.382    0.38E-03    0.45E-03    0.19E-06
 Optimization of the real space projectors (new method)

 maximal supplied QI-value         = 14.36
 optimisation between [QCUT,QGAM] = [ 10.20, 20.39] = [ 29.12,116.47] Ry 
 Optimized for a Real-space Cutoff    1.51 Angstroem

   l    n(q)    QCUT    max X(q) W(low)/X(q) W(high)/X(q)  e(spline) 
   2      8    10.197    66.195    0.45E-03    0.45E-03    0.14E-06
   2      8    10.197    64.643    0.46E-03    0.46E-03    0.14E-06
   0      9    10.197    95.520    0.15E-03    0.11E-03    0.54E-07
   0      9    10.197    63.403    0.15E-03    0.11E-03    0.52E-07
   1      9    10.197    19.961    0.13E-03    0.17E-03    0.77E-07
   1      9    10.197    13.289    0.10E-03    0.15E-03    0.67E-07

 ----------------------------------------------------------------------------- 
|                                                                             |
|  ADVICE TO THIS USER RUNNING 'VASP/VAMP'   (HEAR YOUR MASTER'S VOICE ...):  |
|                                                                             |
|      You enforced a specific xc-type in the INCAR file,                     |
|      a different type was found on the POTCAR file                          |
|          I HOPE YOU KNOW, WHAT YOU ARE  DOING                               |
|                                                                             |
 ----------------------------------------------------------------------------- 

  PAW_PBE H 15Jun2001                   :
 energy of atom  1       EATOM=  -12.4884
 kinetic energy error for atom=    0.0098 (will be added to EATOM!!)
  PAW_PBE O 08Apr2002                   :
 energy of atom  2       EATOM= -432.3788
 kinetic energy error for atom=    0.1156 (will be added to EATOM!!)
  PAW_PBE Pt 04Feb2005                  :
 energy of atom  3       EATOM= -729.1176
 kinetic energy error for atom=    0.0056 (will be added to EATOM!!)
 
 
 POSCAR:  H  O Pt                                
  positions in direct lattice
  velocities in cartesian coordinates
 
  Using predictor-coordinates on the file
 exchange correlation table for  LEXCH =        9
   RHO(1)=    0.500       N(1)  =     2000
   RHO(2)=  100.500       N(2)  =     4000

 VTST: version 3.2, (02/03/18)

 CHAIN: initializing optimizer
 
 OPT: Using VASP Dynamics algorithm
 CHAIN: Read ICHAIN            0
 
 POSCAR:  H  O Pt                                
  positions in direct lattice
  velocities in cartesian coordinates
 
  There are predictor-coordinates on the file.
  we can't use them due to change of POTIM!
 


--------------------------------------------------------------------------------------------------------


 ion  position               nearest neighbor table
   1  0.206  0.457  0.508-  49 0.98
   2  0.210  0.484  0.462-  49 0.99
   3  0.769  0.849  0.466-  50 1.02
   4  0.782  0.678  0.472-  50 1.01
   5  0.624  0.982  0.510-  51 1.01
   6  0.604  0.047  0.466-  51 0.95
   7  0.066  0.724  0.457-  52 0.96
   8  0.219  0.802  0.456-  52 0.97
   9  0.317  0.219  0.674-  53 0.97
  10  0.403  0.084  0.680-  53 0.98
  11  0.791  0.538  0.593-  54 1.01
  12  0.767  0.695  0.599-  54 0.94
  13  0.855  0.413  0.757-  55 0.97
  14  0.752  0.355  0.723-  55 1.00
  15  0.458  0.804  0.696-  56 1.01
  16  0.604  0.905  0.702-  56 0.99
  17  0.463  0.724  0.617-  69 0.99
  18  0.243  0.139  0.563-  57 0.99
  19  0.200  0.822  0.638-  58 0.95
  20  0.154  0.935  0.672-  58 1.00
  21  0.674  0.526  0.658-  59 0.96
  22  0.563  0.394  0.665-  59 1.00
  23  0.802  0.048  0.628-  60 1.00
  24  0.639  0.106  0.641-  60 0.94
  25  0.823  0.145  0.497-  61 0.94
  26  0.965  0.189  0.470-  61 0.96
  27  0.265  0.046  0.465-  62 0.98
  28  0.285  0.991  0.510-  62 0.97
  29  0.951  0.855  0.623-  63 1.04
  30  0.971  0.919  0.583-  63 0.96
  31  0.487  0.393  0.474-  64 1.02
  32  0.609  0.288  0.458-  64 0.98
  33  0.852  0.314  0.556-  65 0.99
  34  0.863  0.276  0.604-  65 0.96
  35  0.471  0.214  0.586-  66 1.01
  36  0.476  0.278  0.541-  66 1.01
  37  0.266  0.423  0.586-  67 0.97
  38  0.088  0.443  0.584-  67 1.00
  39  0.070  0.156  0.711-  68 0.96
  40  0.936  0.126  0.678-  68 1.03
  41  0.091  0.129  0.538-  57 0.97
  42  0.329  0.686  0.585-  69 0.97
  43  0.722  0.452  0.502-  70 0.98
  44  0.715  0.568  0.535-  70 1.00
  45  0.492  0.908  0.574-  71 1.01
  46  0.661  0.976  0.579-  71 0.94
  47  0.277  0.648  0.694-  72 0.98
  48  0.460  0.578  0.695-  72 1.01
  49  0.241  0.413  0.482-   1 0.98   2 0.99
  50  0.831  0.761  0.459-   4 1.01   3 1.02 108 2.49
  51  0.678  0.995  0.482-   6 0.95   5 1.01
  52  0.175  0.713  0.449-   7 0.96   8 0.97 106 2.21
  53  0.414  0.172  0.665-   9 0.97  10 0.98
  54  0.714  0.611  0.604-  12 0.94  11 1.01
  55  0.841  0.327  0.742-  13 0.97  14 1.00
  56  0.513  0.886  0.683-  16 0.99  15 1.01
  57  0.156  0.072  0.557-  41 0.97  18 0.99
  58  0.124  0.846  0.658-  19 0.95  20 1.00
  59  0.617  0.475  0.678-  21 0.96  22 1.00
  60  0.748  0.131  0.640-  24 0.94  23 1.00
  61  0.932  0.170  0.498-  25 0.94  26 0.96
  62  0.296  0.964  0.481-  28 0.97  27 0.98
  63  0.883  0.876  0.597-  30 0.96  29 1.04
  64  0.573  0.326  0.485-  32 0.98  31 1.02
  65  0.880  0.347  0.584-  34 0.96  33 0.99
  66  0.416  0.285  0.568-  35 1.01  36 1.01
  67  0.190  0.497  0.581-  37 0.97  38 1.00
  68  0.058  0.129  0.683-  39 0.96  40 1.03
  69  0.364  0.758  0.603-  42 0.97  17 0.99
  70  0.781  0.535  0.511-  43 0.98  44 1.00
  71  0.559  0.992  0.567-  46 0.94  45 1.01
  72  0.388  0.657  0.704-  47 0.98  48 1.01
  73  0.167  0.083  0.241-  94 2.78  86 2.78  85 2.78  77 2.78  74 2.78  76 2.78  83 2.78  82 2.78
                            75 2.78
  74  0.500  0.083  0.241-  95 2.78  87 2.78  86 2.78  75 2.78  73 2.78  78 2.78  77 2.78  84 2.78
                            83 2.78
  75  0.833  0.083  0.241-  96 2.78  87 2.78  85 2.78  78 2.78  74 2.78  76 2.78  84 2.78  82 2.78
                            73 2.78
  76  0.000  0.333  0.241-  85 2.78  88 2.78  90 2.78  78 2.78  77 2.78  75 2.78  73 2.78  81 2.78
                            79 2.78
  77  0.333  0.333  0.241-  86 2.78  88 2.78  89 2.78  73 2.78  76 2.78  79 2.78  74 2.78  80 2.78
                            78 2.78
  78  0.667  0.333  0.241-  87 2.78  90 2.78  89 2.78  75 2.78  76 2.78  81 2.78  74 2.78  80 2.78
                            77 2.78
  79  0.167  0.583  0.241-  88 2.78  92 2.78  91 2.78  80 2.78  83 2.78  77 2.78  76 2.78  82 2.78
                            81 2.78
  80  0.500  0.583  0.241-  89 2.78  92 2.78  93 2.78  81 2.78  79 2.78  84 2.78  77 2.78  78 2.78
                            83 2.78
  81  0.833  0.583  0.241-  90 2.78  93 2.78  91 2.78  80 2.78  84 2.78  78 2.78  76 2.78  82 2.78
                            79 2.78
  82  0.000  0.833  0.241-  91 2.78  94 2.78  96 2.78  84 2.78  83 2.78  81 2.78  79 2.78  75 2.78
                            73 2.78
  83  0.333  0.833  0.241-  92 2.78  94 2.78  95 2.78  82 2.78  79 2.78  73 2.78  80 2.78  74 2.78
                            84 2.78
  84  0.667  0.833  0.241-  93 2.78  96 2.78  95 2.78  82 2.78  81 2.78  75 2.78  80 2.78  74 2.78
                            83 2.78
  85  0.000  0.167  0.311-  76 2.78  75 2.78  73 2.78  86 2.78  87 2.78  88 2.78  90 2.78  94 2.78
                            96 2.78 102 2.80  97 2.87 100 2.94
  86  0.333  0.167  0.311-  77 2.78  73 2.78  74 2.78  85 2.78  88 2.78  94 2.78  89 2.78  95 2.78
                            87 2.78  98 2.91 101 2.93 100 3.01
  87  0.667  0.167  0.311-  78 2.78  75 2.78  74 2.78  85 2.78  90 2.78  96 2.78  95 2.78  89 2.78
                            86 2.78 102 2.80  99 2.81 101 2.87
  88  0.167  0.417  0.311- 104 2.67  79 2.78  77 2.78  76 2.78  89 2.78  92 2.78  86 2.78  85 2.78
                            91 2.78  90 2.78 100 3.01 103 3.04
  89  0.500  0.417  0.311-  80 2.78  78 2.78  77 2.78  88 2.78  90 2.78  86 2.78  87 2.78  92 2.78
                            93 2.78 104 2.85 101 2.86 105 2.88
  90  0.833  0.417  0.311-  81 2.78  78 2.78  76 2.78  89 2.78  87 2.78  93 2.78  91 2.78  85 2.78
                            88 2.78 103 2.82 102 2.89 105 3.04
  91  0.000  0.667  0.311- 106 2.73  82 2.78  79 2.78  81 2.78  93 2.78  92 2.78  90 2.78  94 2.78
                            96 2.78  88 2.78 108 2.89 103 3.00
  92  0.333  0.667  0.311-  83 2.78  79 2.78  80 2.78  91 2.78  88 2.78  94 2.78  89 2.78  95 2.78
                            93 2.78 107 2.80 106 2.83 104 2.85
  93  0.667  0.667  0.311- 108 2.78  84 2.78  81 2.78  80 2.78  91 2.78  96 2.78  90 2.78  89 2.78
                            95 2.78  92 2.78 105 2.85 107 2.93
  94  0.167  0.917  0.311-  73 2.78  83 2.78  82 2.78  95 2.78  92 2.78  86 2.78  85 2.78  91 2.78
                            96 2.78 106 2.87  98 2.89  97 2.93
  95  0.500  0.917  0.311-  74 2.78  83 2.78  84 2.78  94 2.78  96 2.78  92 2.78  93 2.78  86 2.78
                            87 2.78  98 2.79  99 2.82 107 2.83
  96  0.833  0.917  0.311-  75 2.78  84 2.78  82 2.78  95 2.78  93 2.78  87 2.78  85 2.78  91 2.78
                            94 2.78  99 2.79 108 2.80  97 2.93
  97  0.999  0.008  0.386- 102 2.63 100 2.65  99 2.74 108 2.86  85 2.87  98 2.89 106 2.90  96 2.93
                            94 2.93
  98  0.345  0.992  0.384- 107 2.56  99 2.72  95 2.79 101 2.87  94 2.89  97 2.89  86 2.91 106 2.91
                           100 2.91
  99  0.671  0.000  0.382- 108 2.67 102 2.67  98 2.72  97 2.74  96 2.79  87 2.81 101 2.81  95 2.82
                           107 2.84
 100  0.157  0.246  0.388-  97 2.65 104 2.69 102 2.71 103 2.82  98 2.91 101 2.92  85 2.94  88 3.01
                            86 3.01
 101  0.507  0.255  0.385- 102 2.73 105 2.76 104 2.78  99 2.81  89 2.86  98 2.87  87 2.87 100 2.92
                            86 2.93
 102  0.833  0.239  0.382-  97 2.63  99 2.67 103 2.70 100 2.71 101 2.73  87 2.80  85 2.80  90 2.89
                           105 3.08
 103  0.973  0.491  0.387- 102 2.70 105 2.74 100 2.82  90 2.82 106 2.84 104 2.84 108 2.85  91 3.00
                            88 3.04
 104  0.313  0.489  0.381-  88 2.67 100 2.69 106 2.75 101 2.78 105 2.80 103 2.84  89 2.85  92 2.85
                           107 2.93
 105  0.646  0.515  0.386- 107 2.68 103 2.74 108 2.74 101 2.76 104 2.80  93 2.85  89 2.88  90 3.04
                           102 3.08
 106  0.154  0.739  0.382-  52 2.21  91 2.73 104 2.75 107 2.75 108 2.80  92 2.83 103 2.84  94 2.87
                            97 2.90  98 2.91
 107  0.483  0.755  0.383-  98 2.56 105 2.68 106 2.75  92 2.80 108 2.81  95 2.83  99 2.84 104 2.93
                            93 2.93
 108  0.820  0.755  0.382-  50 2.49  99 2.67 105 2.74  93 2.78  96 2.80 106 2.80 107 2.81 103 2.85
                            97 2.86  91 2.89
 
  LATTYP: Found a simple orthorhombic cell.
 ALAT       =     8.3458886423
 B/A-ratio  =     1.1547005384
 C/A-ratio  =     3.8992763690
  
  Lattice vectors:
  
 A1 = (   8.3458886423,   0.0000000000,   0.0000000000)
 A2 = (   0.0000000000,   9.6370021085,   0.0000000000)
 A3 = (   0.0000000000,   0.0000000000,  32.5429263608)


Analysis of symmetry for initial positions (statically):
=====================================================================
 Subroutine PRICEL returns:
 Original cell was already a primitive cell.
 

 Routine SETGRP: Setting up the symmetry group for a 
 simple orthorhombic supercell.


 Subroutine GETGRP returns: Found  1 space group operations
 (whereof  1 operations were pure point group operations)
 out of a pool of  8 trial point group operations.


The static configuration has the point symmetry C_1 .


Analysis of symmetry for dynamics (positions and initial velocities):
=====================================================================
 Subroutine PRICEL returns:
 Original cell was already a primitive cell.
 

 Routine SETGRP: Setting up the symmetry group for a 
 simple orthorhombic supercell.


 Subroutine GETGRP returns: Found  1 space group operations
 (whereof  1 operations were pure point group operations)
 out of a pool of  8 trial point group operations.


The dynamic configuration has the point symmetry C_1 .


Analysis of constrained symmetry for selective dynamics:
=====================================================================
 Subroutine PRICEL returns:
 Original cell was already a primitive cell.
 

 Routine SETGRP: Setting up the symmetry group for a 
 simple orthorhombic supercell.


 Subroutine GETGRP returns: Found  1 space group operations
 (whereof  1 operations were pure point group operations)
 out of a pool of  8 trial point group operations.


The constrained configuration has the point symmetry C_1 .


 Subroutine INISYM returns: Found  1 space group operations
 (whereof  1 operations are pure point group operations),
 and found     1 'primitive' translations

 
 
 KPOINTS: automatic                               

Automatic generation of k-mesh.
Space group operators:
 irot       det(A)        alpha          n_x          n_y          n_z        tau_x        tau_y        tau_z
    1     1.000000     0.000000     1.000000     0.000000     0.000000     0.000000     0.000000     0.000000
 
 Subroutine IBZKPT returns following result:
 ===========================================
 
 Found      7 irreducible k-points:
 
 Following reciprocal coordinates:
            Coordinates               Weight
  0.000000  0.000000  0.000000      1.000000
  0.250000  0.000000  0.000000      2.000000
  0.500000  0.000000  0.000000      1.000000
  0.000000  0.333333  0.000000      2.000000
  0.250000  0.333333  0.000000      2.000000
  0.500000  0.333333  0.000000      2.000000
 -0.250000  0.333333  0.000000      2.000000
 
 Following cartesian coordinates:
            Coordinates               Weight
  0.000000  0.000000  0.000000      1.000000
  0.029955  0.000000  0.000000      2.000000
  0.059910  0.000000  0.000000      1.000000
  0.000000  0.034589  0.000000      2.000000
  0.029955  0.034589  0.000000      2.000000
  0.059910  0.034589  0.000000      2.000000
 -0.029955  0.034589  0.000000      2.000000
 


--------------------------------------------------------------------------------------------------------




 Dimension of arrays:
   k-points           NKPTS =      7   k-points in BZ     NKDIM =      7   number of bands    NBANDS=    331
   number of dos      NEDOS =    301   number of ions     NIONS =    108
   non local maximal  LDIM  =      6   non local SUM 2l+1 LMDIM =     18
   total plane-waves  NPLWV = 322560
   max r-space proj   IRMAX =   1822   max aug-charges    IRDMAX=   7663
   dimension x,y,z NGX =    42 NGY =   48 NGZ =  160
   dimension x,y,z NGXF=    84 NGYF=   96 NGZF=  320
   support grid    NGXF=    84 NGYF=   96 NGZF=  320
   ions per type =              48  24  36
   NGX,Y,Z   is equivalent  to a cutoff of   8.37,  8.28,  8.17 a.u.
   NGXF,Y,Z  is equivalent  to a cutoff of  16.73, 16.56, 16.35 a.u.

 SYSTEM =  PtH2O                                   
 POSCAR =   H  O Pt                                

 Startparameter for this run:
   NWRITE =      2    write-flag & timer
   PREC   = normal    normal or accurate (medium, high low for compatibility)
   ISTART =      0    job   : 0-new  1-cont  2-samecut
   ICHARG =      2    charge: 1-file 2-atom 10-const
   ISPIN  =      1    spin polarized calculation?
   LNONCOLLINEAR =      F non collinear calculations
   LSORBIT =      F    spin-orbit coupling
   INIWAV =      1    electr: 0-lowe 1-rand  2-diag
   LASPH  =      F    aspherical Exc in radial PAW
   METAGGA=      F    non-selfconsistent MetaGGA calc.

 Electronic Relaxation 1
   ENCUT  =  400.0 eV  29.40 Ry    5.42 a.u.  13.61 15.72 53.07*2*pi/ulx,y,z
   ENINI  =  400.0     initial cutoff
   ENAUG  =  605.4 eV  augmentation charge cutoff
   NELM   =    200;   NELMIN=  2; NELMDL= -5     # of ELM steps 
   EDIFF  = 0.1E-03   stopping-criterion for ELM
   LREAL  =      T    real-space projection
   NLSPLINE    = F    spline interpolate recip. space projectors
   LCOMPAT=      F    compatible to vasp.4.4
   GGA_COMPAT  = T    GGA compatible to vasp.4.4-vasp.4.6
   LMAXPAW     = -100 max onsite density
   LMAXMIX     =    2 max onsite mixed and CHGCAR
   VOSKOWN=      0    Vosko Wilk Nusair interpolation
   ROPT   =   -0.00050  -0.00050  -0.00050
 Ionic relaxation
   EDIFFG = 0.0E+00   stopping-criterion for IOM
   NSW    =      3    number of steps for IOM
   NBLOCK =      1;   KBLOCK =      3    inner block; outer block 
   IBRION =      0    ionic relax: 0-MD 1-quasi-New 2-CG
   NFREE  =      0    steps in history (QN), initial steepest desc. (CG)
   ISIF   =      0    stress and relaxation
   IWAVPR =     12    prediction:  0-non 1-charg 2-wave 3-comb
   ISYM   =      2    0-nonsym 1-usesym 2-fastsym
   LCORR  =      T    Harris-Foulkes like correction to forces

   POTIM  = 1.0000    time-step for ionic-motion
   TEIN   =  315.6    initial temperature
   TEBEG  =  300.0;   TEEND  = 300.0 temperature during run
   SMASS  =   0.07    Nose mass-parameter (am)
   estimated Nose-frequenzy (Omega)   =  0.16E+15 period in steps = 40.00 mass=   0.388E-28a.u.
   SCALEE = 1.0000    scale energy and forces
   NPACO  =    256;   APACO  = 16.0  distance and # of slots for P.C.
   PSTRESS=    0.0 pullay stress

  Mass of Ions in am
   POMASS =   1.00 16.00195.08
  Ionic Valenz
   ZVAL   =   1.00  6.00 10.00
  Atomic Wigner-Seitz radii
   RWIGS  =  -1.00 -1.00 -1.00
  virtual crystal weights 
   VCA    =   1.00  1.00  1.00
   NELECT =     552.0000    total number of electrons
   NUPDOWN=      -1.0000    fix difference up-down

 DOS related values:
   EMIN   =  10.00;   EMAX   =-10.00  energy-range for DOS
   EFERMI =   0.00
   ISMEAR =     0;   SIGMA  =   0.10  broadening in eV -4-tet -1-fermi 0-gaus

 Electronic relaxation 2 (details)
   IALGO  =     68    algorithm
   LDIAG  =      T    sub-space diagonalisation (order eigenvalues)
   LSUBROT=      F    optimize rotation matrix (better conditioning)
   TURBO    =      0    0=normal 1=particle mesh
   IRESTART =      0    0=no restart 2=restart with 2 vectors
   NREBOOT  =      0    no. of reboots
   NMIN     =      0    reboot dimension
   EREF     =   0.00    reference energy to select bands
   IMIX   =      4    mixing-type and parameters
     AMIX     =   0.40;   BMIX     =  1.00
     AMIX_MAG =   1.60;   BMIX_MAG =  1.00
     AMIN     =   0.10
     WC   =   100.;   INIMIX=   1;  MIXPRE=   1;  MAXMIX= -45

 Intra band minimization:
   WEIMIN = 0.0010     energy-eigenvalue tresh-hold
   EBREAK =  0.00E+00  absolut break condition
   DEPER  =   0.30     relativ break condition  

   TIME   =   0.40     timestep for ELM

  volume/ion in A,a.u.               =      24.24       163.55
  Fermi-wavevector in a.u.,A,eV,Ry     =   0.974460  1.841463 12.919723  0.949573
  Thomas-Fermi vector in A             =   2.104922
 
 Write flags
   LWAVE        =      F    write WAVECAR
   LDOWNSAMPLE  =      F    k-point downsampling of WAVECAR
   LCHARG       =      F    write CHGCAR
   LVTOT        =      F    write LOCPOT, total local potential
   LVHAR        =      F    write LOCPOT, Hartree potential only
   LELF         =      F    write electronic localiz. function (ELF)
   LORBIT       =      0    0 simple, 1 ext, 2 COOP (PROOUT), +10 PAW based schemes


 Dipole corrections
   LMONO  =      F    monopole corrections only (constant potential shift)
   LDIPOL =      T    correct potential (dipole corrections)
   IDIPOL =      3    1-x, 2-y, 3-z, 4-all directions 
   EPSILON=  1.0000000 bulk dielectric constant

 Exchange correlation treatment:
   GGA     =    RP    GGA type
   LEXCH   =     9    internal setting for exchange type
   VOSKOWN=      0    Vosko Wilk Nusair interpolation
   LHFCALC =     F    Hartree Fock is set to
   LHFONE  =     F    Hartree Fock one center treatment
   AEXX    =    0.0000 exact exchange contribution

 Linear response parameters
   LEPSILON=     F    determine dielectric tensor
   LRPA    =     F    only Hartree local field effects (RPA)
   LNABLA  =     F    use nabla operator in PAW spheres
   LVEL    =     F    velocity operator in full k-point grid
   LINTERFAST=   F  fast interpolation
   KINTER  =     0    interpolate to denser k-point grid
   CSHIFT  =0.1000    complex shift for real part using Kramers Kronig
   OMEGAMAX=  -1.0    maximum frequency
   DEG_THRESHOLD= 0.2000000E-02 threshold for treating states as degnerate
   RTIME   =   -0.100 relaxation time in fs
  (WPLASMAI=    0.000 imaginary part of plasma frequency in eV, 0.658/RTIME)
   DFIELD  = 0.0000000 0.0000000 0.0000000 field for delta impulse in time
 
 Orbital magnetization related:
   ORBITALMAG=     F  switch on orbital magnetization
   LCHIMAG   =     F  perturbation theory with respect to B field
   DQ        =  0.001000  dq finite difference perturbation B field
   LLRAUG    =     F  two centre corrections for induced B field



--------------------------------------------------------------------------------------------------------


 molecular dynamics for ions
   using nose mass (canonical ensemble)
   using selective dynamics as specified on POSCAR
 charge density and potential will be updated during run
 non-spin polarized calculation
 RMM-DIIS sequential band-by-band and
  variant of blocked Davidson during initial phase
 perform sub-space diagonalisation
    before iterative eigenvector-optimisation
 modified Broyden-mixing scheme, WC =      100.0
 initial mixing is a Kerker type mixing with AMIX =  0.4000 and BMIX =      1.0000
 Hartree-type preconditioning will be used
 using additional bands           55
 real space projection scheme for non local part
 use partial core corrections
 calculate Harris-corrections to forces 
   (improved forces if not selfconsistent)
 use gradient corrections 
 use of overlap-Matrix (Vanderbilt PP)
 Gauss-broadening in eV      SIGMA  =   0.10


--------------------------------------------------------------------------------------------------------


  energy-cutoff  :      400.00
  volume of cell :     2617.41
      direct lattice vectors                 reciprocal lattice vectors
     8.345888642  0.000000000  0.000000000     0.119819476  0.000000000  0.000000000
     0.000000000  9.637002109  0.000000000     0.000000000  0.103766710  0.000000000
     0.000000000  0.000000000 32.542926361     0.000000000  0.000000000  0.030728644

  length of vectors
     8.345888642  9.637002109 32.542926361     0.119819476  0.103766710  0.030728644


 
 k-points in units of 2pi/SCALE and weight: automatic                               
   0.00000000  0.00000000  0.00000000       0.083
   0.02995487  0.00000000  0.00000000       0.167
   0.05990974  0.00000000  0.00000000       0.083
   0.00000000  0.03458890  0.00000000       0.167
   0.02995487  0.03458890  0.00000000       0.167
   0.05990974  0.03458890  0.00000000       0.167
  -0.02995487  0.03458890  0.00000000       0.167
 
 k-points in reciprocal lattice and weights: automatic                               
   0.00000000  0.00000000  0.00000000       0.083
   0.25000000  0.00000000  0.00000000       0.167
   0.50000000  0.00000000  0.00000000       0.083
   0.00000000  0.33333333  0.00000000       0.167
   0.25000000  0.33333333  0.00000000       0.167
   0.50000000  0.33333333  0.00000000       0.167
  -0.25000000  0.33333333  0.00000000       0.167
 
 position of ions in fractional coordinates (direct lattice) 
   0.20590734  0.45722860  0.50795793
   0.21037265  0.48401963  0.46197192
   0.76857833  0.84949448  0.46587229
   0.78227971  0.67752846  0.47243747
   0.62417689  0.98179127  0.50982297
   0.60449073  0.04668596  0.46566488
   0.06600537  0.72440057  0.45747919
   0.21856545  0.80237740  0.45636958
   0.31714875  0.21928230  0.67413644
   0.40301924  0.08394357  0.67985220
   0.79088924  0.53772241  0.59319711
   0.76737512  0.69471331  0.59885522
   0.85501202  0.41343565  0.75689607
   0.75220916  0.35450433  0.72250680
   0.45832087  0.80384031  0.69648114
   0.60365392  0.90464084  0.70170442
   0.46284263  0.72361156  0.61700863
   0.24260799  0.13896865  0.56298819
   0.19950590  0.82240054  0.63787904
   0.15356309  0.93539525  0.67215158
   0.67380451  0.52596301  0.65776953
   0.56312791  0.39430876  0.66480952
   0.80221048  0.04820188  0.62767957
   0.63889770  0.10637010  0.64144210
   0.82304229  0.14492735  0.49703086
   0.96546041  0.18867389  0.46972734
   0.26537104  0.04596856  0.46536285
   0.28533895  0.99144544  0.50979052
   0.95129723  0.85462159  0.62318808
   0.97091144  0.91852747  0.58271538
   0.48702574  0.39290628  0.47439359
   0.60881997  0.28834956  0.45803307
   0.85159365  0.31388194  0.55589828
   0.86262762  0.27609310  0.60386699
   0.47056473  0.21449930  0.58622554
   0.47569965  0.27766554  0.54149891
   0.26633449  0.42255923  0.58561841
   0.08801731  0.44341882  0.58370946
   0.07021537  0.15594894  0.71138799
   0.93598681  0.12580719  0.67840237
   0.09092880  0.12888734  0.53848275
   0.32874132  0.68575529  0.58480079
   0.72232366  0.45208013  0.50220326
   0.71545902  0.56764057  0.53508553
   0.49158002  0.90802052  0.57406675
   0.66078957  0.97608631  0.57869768
   0.27710535  0.64805696  0.69381533
   0.45997303  0.57781963  0.69516728
   0.24061401  0.41308569  0.48236961
   0.83052024  0.76144366  0.45859469
   0.67757838  0.99502507  0.48216269
   0.17549879  0.71275605  0.44876860
   0.41380235  0.17208331  0.66522262
   0.71377743  0.61096081  0.60362945
   0.84092990  0.32708001  0.74171684
   0.51300023  0.88594082  0.68306085
   0.15581409  0.07242673  0.55654387
   0.12425678  0.84629165  0.65846283
   0.61709987  0.47452438  0.67847312
   0.74782869  0.13084967  0.63964033
   0.93205895  0.16999041  0.49754033
   0.29627474  0.96382836  0.48118047
   0.88343833  0.87628900  0.59730095
   0.57271817  0.32571436  0.48460461
   0.88045950  0.34727821  0.58353234
   0.41583903  0.28546140  0.56836498
   0.19015730  0.49656169  0.58097104
   0.05784716  0.12866748  0.68320195
   0.36421164  0.75786218  0.60344143
   0.78101791  0.53476427  0.51128293
   0.55864322  0.99208893  0.56734853
   0.38782797  0.65742554  0.70358217
   0.16666667  0.08333333  0.24123678
   0.50000000  0.08333333  0.24123678
   0.83333333  0.08333333  0.24123678
   0.00000000  0.33333333  0.24123678
   0.33333333  0.33333333  0.24123678
   0.66666667  0.33333333  0.24123678
   0.16666667  0.58333333  0.24123678
   0.50000000  0.58333333  0.24123678
   0.83333333  0.58333333  0.24123678
   0.00000000  0.83333333  0.24123678
   0.33333333  0.83333333  0.24123678
   0.66666667  0.83333333  0.24123678
   0.00000000  0.16666667  0.31103576
   0.33333333  0.16666667  0.31103576
   0.66666667  0.16666667  0.31103576
   0.16666667  0.41666667  0.31103576
   0.50000000  0.41666667  0.31103576
   0.83333333  0.41666667  0.31103576
   0.00000000  0.66666667  0.31103576
   0.33333333  0.66666667  0.31103576
   0.66666667  0.66666667  0.31103576
   0.16666667  0.91666667  0.31103576
   0.50000000  0.91666667  0.31103576
   0.83333333  0.91666667  0.31103576
   0.99913355  0.00755337  0.38561656
   0.34488750  0.99188129  0.38376413
   0.67080494  0.00009919  0.38175956
   0.15707821  0.24637621  0.38838062
   0.50692604  0.25455039  0.38478730
   0.83327728  0.23899435  0.38248522
   0.97259400  0.49106390  0.38698184
   0.31262178  0.48909938  0.38085374
   0.64600786  0.51450415  0.38584282
   0.15437053  0.73909748  0.38167136
   0.48332494  0.75452168  0.38333521
   0.81983440  0.75483927  0.38222886
 
 position of ions in cartesian coordinates  (Angst):
   1.71847973  4.40631298 16.53043751
   1.75574671  4.66449819 15.03391817
   6.41446916  8.18658009 15.16084763
   6.52881935  6.52934320 15.37449780
   5.20931082  9.46152454 16.59113137
   5.04501232  0.44991271 15.15409790
   0.55087344  6.98104982 14.88771159
   1.82412291  7.73251270 14.85160164
   2.64688815  2.11322399 21.93837252
   3.36355370  0.80896432 22.12438008
   6.60067353  5.18203200 19.30436987
   6.40442730  6.69495363 19.48850133
   7.13583511  3.98428023 24.63161307
   6.27785389  3.41635898 23.51248559
   3.82509494  7.74661076 22.66553445
   5.03802839  8.71802568 22.83551527
   3.86283305  6.97344613 20.07926641
   2.02477927  1.33924117 18.32128321
   1.66505402  7.92547574 20.75845063
   1.28162045  9.01440600 21.87377937
   5.62349741  5.06870664 21.40574538
   4.69980283  3.79995435 21.63484725
   6.69515933  0.46452165 20.42653002
   5.33216906  1.02508888 20.87440303
   6.86901930  1.39666518 16.17483868
   8.05762507  1.81825068 15.28630224
   2.21475715  0.44299914 15.14426896
   2.38140710  9.55456180 16.59007535
   7.93942075  8.23599006 20.28036380
   8.10311876  8.85185117 18.96326370
   4.06466259  3.78643865 15.43815567
   5.08114367  2.77882532 14.90573647
   7.10730577  3.02488092 18.09055679
   7.19939406  2.66070979 19.65159899
   3.92728084  2.06713021 19.07749458
   3.97013631  2.67586339 17.62195915
   2.22279800  4.07220419 19.05773679
   0.73458269  4.27322810 18.99561397
   0.58600965  1.50288026 23.15064697
   7.81164169  1.21240416 22.07719837
   0.75888164  1.24208757 17.52380448
   2.74363845  6.60862518 19.03112904
   6.02843283  4.35669717 16.34316371
   5.97114131  5.47035337 17.41324900
   4.10267211  8.75059567 18.68181197
   5.51487617  9.40654583 18.83251599
   2.31269039  6.24532629 22.57878119
   3.83888369  5.56844899 22.62277760
   2.00813773  3.98090767 15.69771870
   6.93142944  7.33803416 14.92401323
   5.65499371  9.58905870 15.69098491
   1.46469336  6.86883156 14.60424350
   3.45354833  1.65836722 21.64829074
   5.95710695  5.88783061 19.64386874
   7.01830730  3.15207075 24.13763650
   4.28144279  8.53781355 22.22879894
   1.30040704  0.69797657 18.11156618
   1.03703325  8.15571442 21.42830739
   5.15024680  4.57299245 22.07950078
   6.24129497  1.26099855 20.81576816
   7.77886020  1.63819794 16.19141832
   2.47267599  9.28841594 15.65902060
   7.37307792  8.44479894 19.43792083
   4.77984207  3.13890997 15.77045214
   7.34821694  3.34672084 18.98984997
   3.47054624  2.75099211 18.49625969
   1.58703165  4.78536605 18.90649777
   0.48278595  1.23996878 22.23339075
   3.03966979  7.30351943 19.63775002
   6.51828850  5.15352440 16.63864274
   4.66237410  9.56076311 18.46318143
   3.23676905  6.33561132 22.89662275
   1.39098147  0.80308351  7.85055077
   4.17294432  0.80308351  7.85055077
   6.95490717  0.80308351  7.85055077
   0.00000000  3.21233400  7.85055077
   2.78196285  3.21233400  7.85055077
   5.56392579  3.21233400  7.85055077
   1.39098147  5.62158453  7.85055077
   4.17294432  5.62158453  7.85055077
   6.95490717  5.62158453  7.85055077
   0.00000000  8.03083506  7.85055077
   2.78196285  8.03083506  7.85055077
   5.56392579  8.03083506  7.85055077
   0.00000000  1.60616705 10.12201383
   2.78196285  1.60616705 10.12201383
   5.56392579  1.60616705 10.12201383
   1.39098147  4.01541758 10.12201383
   4.17294432  4.01541758 10.12201383
   6.95490717  4.01541758 10.12201383
   0.00000000  6.42466810 10.12201383
   2.78196285  6.42466810 10.12201383
   5.56392579  6.42466810 10.12201383
   1.39098147  8.83391863 10.12201383
   4.17294432  8.83391863 10.12201383
   6.95490717  8.83391863 10.12201383
   8.33865735  0.07279186 12.54909132
   2.87839267  9.55876208 12.48880782
   5.59846333  0.00095586 12.42357325
   1.31095725  2.37432806 12.63904192
   4.23074828  2.45310265 12.52210477
   6.95443939  2.30318905 12.44718835
   8.11716122  4.73238384 12.59352152
   2.60910656  4.71345176 12.39409522
   5.39150966  4.95827758 12.55645448
   1.28835925  7.12268397 12.42070296
   4.03377613  7.27132702 12.47484951
   6.84224661  7.27438764 12.43884564
 


--------------------------------------------------------------------------------------------------------


 k-point  1 :   0.0000 0.0000 0.0000  plane waves:   47615
 k-point  2 :   0.2500 0.0000 0.0000  plane waves:   47511
 k-point  3 :   0.5000 0.0000 0.0000  plane waves:   47600
 k-point  4 :   0.0000 0.3333 0.0000  plane waves:   47504
 k-point  5 :   0.2500 0.3333 0.0000  plane waves:   47550
 k-point  6 :   0.5000 0.3333 0.0000  plane waves:   47452
 k-point  7 :  -0.2500 0.3333 0.0000  plane waves:   47550

 maximum and minimum number of plane-waves per node :      2020     1955

 maximum number of plane-waves:     47615
 maximum index in each direction: 
   IXMAX=   13   IYMAX=   15   IZMAX=   53
   IXMIN=  -14   IYMIN=  -16   IZMIN=  -53


 real space projection operators:
  total allocation   :      12618.14 KBytes
  max/ min on nodes  :        644.12        283.62


 parallel 3D FFT for wavefunctions:
    minimum data exchange during FFTs selected (reduces bandwidth)
 parallel 3D FFT for charge:
    minimum data exchange during FFTs selected (reduces bandwidth)


 total amount of memory used by VASP MPI-rank0   122896. kBytes
=======================================================================

   base      :      30000. kBytes
   nonlr-proj:       4007. kBytes
   fftplans  :       4483. kBytes
   grid      :       8517. kBytes
   one-center:         77. kBytes
   wavefun   :      75812. kBytes
 
     INWAV:  cpu time    0.0000: real time    0.0000
 Broyden mixing: mesh for mixing (old mesh)
   NGX = 27   NGY = 31   NGZ =107
  (NGX  = 84   NGY  = 96   NGZ  =320)
  gives a total of  89559 points

 initial charge density was supplied:
 charge density of overlapping atoms calculated
 number of electron     552.0000000 magnetization 
 keeping initial charge density in first step


--------------------------------------------------------------------------------------------------------


 Maximum index for non-local projection operator          173
 Maximum index for augmentation-charges          593 (set IRDMAX)


--------------------------------------------------------------------------------------------------------


 First call to EWALD:  gamma=   0.129
 Maximum number of real-space cells 4x 4x 1
 Maximum number of reciprocal cells 2x 2x 6

    FEWALD:  cpu time    0.0482: real time    0.0482


--------------------------------------- Iteration      1(   1)  ---------------------------------------


    POTLOK:  cpu time    0.0961: real time    0.1001
    SETDIJ:  cpu time    0.0148: real time    0.0172
     EDDAV:  cpu time   17.7221: real time   17.7491
       DOS:  cpu time    0.0064: real time    0.0064
    --------------------------------------------
      LOOP:  cpu time   17.8393: real time   17.8729

 eigenvalue-minimisations  :  4802
 total energy-change (2. order) : 0.3749084E+04  (-0.2132749E+05)
 number of electron     552.0000000 magnetization 
 augmentation part      552.0000000 magnetization 

 DIPCOR: dipole corrections for dipol
 direction  3 min pos     1,
 dipolmoment           0.000000      0.000000     -0.000074 electrons x Angstroem
 Tr[quadrupol]     -7483.464671

 energy correction for charged system         0.000000 eV
 dipol+quadrupol energy correction           -0.000000 eV
 added-field ion interaction         -0.008654 eV  (added to PSCEN)


 Free energy of the ion-electron system (eV)
  ---------------------------------------------------
  alpha Z        PSCENC =       863.57833122
  Ewald energy   TEWEN  =    223617.10055899
  -Hartree energ DENC   =   -260359.54409963
  -exchange      EXHF   =         0.00000000
  -V(xc)+E(xc)   XCENC  =       881.40387426
  PAW double counting   =     33505.36643195   -32489.60540758
  entropy T*S    EENTRO =        -0.13542081
  eigenvalues    EBANDS =       536.96780619
  atomic energy  EATOM  =     37193.95212048
  Solvation  Ediel_sol  =         0.00000000
  ---------------------------------------------------
  free energy    TOTEN  =      3749.08419508 eV

  energy without entropy =     3749.21961589  energy(sigma->0) =     3749.15190548


--------------------------------------------------------------------------------------------------------




--------------------------------------- Iteration      1(   2)  ---------------------------------------


     EDDAV:  cpu time   20.5092: real time   20.5136
       DOS:  cpu time    0.0063: real time    0.0063
    --------------------------------------------
      LOOP:  cpu time   20.5156: real time   20.5200

 eigenvalue-minimisations  :  5788
 total energy-change (2. order) :-0.3890770E+04  (-0.3693814E+04)
 number of electron     552.0000000 magnetization 
 augmentation part      552.0000000 magnetization 

 DIPCOR: dipole corrections for dipol
 direction  3 min pos     1,
 dipolmoment           0.000000      0.000000     -0.000074 electrons x Angstroem
 Tr[quadrupol]     -7483.464671

 energy correction for charged system         0.000000 eV
 dipol+quadrupol energy correction           -0.000000 eV
 added-field ion interaction         -0.008654 eV  (added to PSCEN)


 Free energy of the ion-electron system (eV)
  ---------------------------------------------------
  alpha Z        PSCENC =       863.57833122
  Ewald energy   TEWEN  =    223617.10055899
  -Hartree energ DENC   =   -260359.54409963
  -exchange      EXHF   =         0.00000000
  -V(xc)+E(xc)   XCENC  =       881.40387426
  PAW double counting   =     33505.36643195   -32489.60540758
  entropy T*S    EENTRO =        -0.20061664
  eigenvalues    EBANDS =     -3353.73677664
  atomic energy  EATOM  =     37193.95212048
  Solvation  Ediel_sol  =         0.00000000
  ---------------------------------------------------
  free energy    TOTEN  =      -141.68558359 eV

  energy without entropy =     -141.48496694  energy(sigma->0) =     -141.58527527


--------------------------------------------------------------------------------------------------------




--------------------------------------- Iteration      1(   3)  ---------------------------------------


     EDDAV:  cpu time   18.8885: real time   18.9041
       DOS:  cpu time    0.0064: real time    0.0064
    --------------------------------------------
      LOOP:  cpu time   18.8948: real time   18.9104

 eigenvalue-minimisations  :  5204
 total energy-change (2. order) :-0.4190361E+03  (-0.4051618E+03)
 number of electron     552.0000000 magnetization 
 augmentation part      552.0000000 magnetization 

 DIPCOR: dipole corrections for dipol
 direction  3 min pos     1,
 dipolmoment           0.000000      0.000000     -0.000074 electrons x Angstroem
 Tr[quadrupol]     -7483.464671

 energy correction for charged system         0.000000 eV
 dipol+quadrupol energy correction           -0.000000 eV
 added-field ion interaction         -0.008654 eV  (added to PSCEN)


 Free energy of the ion-electron system (eV)
  ---------------------------------------------------
  alpha Z        PSCENC =       863.57833122
  Ewald energy   TEWEN  =    223617.10055899
  -Hartree energ DENC   =   -260359.54409963
  -exchange      EXHF   =         0.00000000
  -V(xc)+E(xc)   XCENC  =       881.40387426
  PAW double counting   =     33505.36643195   -32489.60540758
  entropy T*S    EENTRO =        -0.26897449
  eigenvalues    EBANDS =     -3772.70450577
  atomic energy  EATOM  =     37193.95212048
  Solvation  Ediel_sol  =         0.00000000
  ---------------------------------------------------
  free energy    TOTEN  =      -560.72167057 eV

  energy without entropy =     -560.45269607  energy(sigma->0) =     -560.58718332


--------------------------------------------------------------------------------------------------------




--------------------------------------- Iteration      1(   4)  ---------------------------------------


     EDDAV:  cpu time   20.3724: real time   20.4071
       DOS:  cpu time    0.0094: real time    0.0094
    --------------------------------------------
      LOOP:  cpu time   20.3818: real time   20.4165

 eigenvalue-minimisations  :  5668
 total energy-change (2. order) :-0.1414350E+02  (-0.1401901E+02)
 number of electron     552.0000000 magnetization 
 augmentation part      552.0000000 magnetization 

 DIPCOR: dipole corrections for dipol
 direction  3 min pos     1,
 dipolmoment           0.000000      0.000000     -0.000074 electrons x Angstroem
 Tr[quadrupol]     -7483.464671

 energy correction for charged system         0.000000 eV
 dipol+quadrupol energy correction           -0.000000 eV
 added-field ion interaction         -0.008654 eV  (added to PSCEN)


 Free energy of the ion-electron system (eV)
  ---------------------------------------------------
  alpha Z        PSCENC =       863.57833122
  Ewald energy   TEWEN  =    223617.10055899
  -Hartree energ DENC   =   -260359.54409963
  -exchange      EXHF   =         0.00000000
  -V(xc)+E(xc)   XCENC  =       881.40387426
  PAW double counting   =     33505.36643195   -32489.60540758
  entropy T*S    EENTRO =        -0.27379121
  eigenvalues    EBANDS =     -3786.84318679
  atomic energy  EATOM  =     37193.95212048
  Solvation  Ediel_sol  =         0.00000000
  ---------------------------------------------------
  free energy    TOTEN  =      -574.86516830 eV

  energy without entropy =     -574.59137709  energy(sigma->0) =     -574.72827270


--------------------------------------------------------------------------------------------------------




--------------------------------------- Iteration      1(   5)  ---------------------------------------


     EDDAV:  cpu time   21.8085: real time   21.8269
       DOS:  cpu time    0.0066: real time    0.0066
    CHARGE:  cpu time    0.7973: real time    0.7974
    MIXING:  cpu time    0.0033: real time    0.0034
    --------------------------------------------
      LOOP:  cpu time   22.6157: real time   22.6342

 eigenvalue-minimisations  :  6260
 total energy-change (2. order) :-0.3921382E+00  (-0.3915090E+00)
 number of electron     552.0000296 magnetization 
 augmentation part      124.6986643 magnetization 

 DIPCOR: dipole corrections for dipol
 direction  3 min pos     1,
 dipolmoment           0.000000      0.000000     -0.000074 electrons x Angstroem
 Tr[quadrupol]     -7483.464671

 energy correction for charged system         0.000000 eV
 dipol+quadrupol energy correction           -0.000000 eV
 added-field ion interaction         -0.008654 eV  (added to PSCEN)


 Broyden mixing:
  rms(total) = 0.68859E+01    rms(broyden)= 0.68819E+01
  rms(prec ) = 0.69806E+01
  weight for this iteration     100.00

 Free energy of the ion-electron system (eV)
  ---------------------------------------------------
  alpha Z        PSCENC =       863.57833122
  Ewald energy   TEWEN  =    223617.10055899
  -Hartree energ DENC   =   -260359.54409963
  -exchange      EXHF   =         0.00000000
  -V(xc)+E(xc)   XCENC  =       881.40387426
  PAW double counting   =     33505.36643195   -32489.60540758
  entropy T*S    EENTRO =        -0.27402366
  eigenvalues    EBANDS =     -3787.23509257
  atomic energy  EATOM  =     37193.95212048
  Solvation  Ediel_sol  =         0.00000000
  ---------------------------------------------------
  free energy    TOTEN  =      -575.25730652 eV

  energy without entropy =     -574.98328287  energy(sigma->0) =     -575.12029470


--------------------------------------------------------------------------------------------------------




--------------------------------------- Iteration      1(   6)  ---------------------------------------


    POTLOK:  cpu time    0.0855: real time    0.0887
    SETDIJ:  cpu time    0.0137: real time    0.0145
    EDDIAG:  cpu time    2.6431: real time    2.6448
  RMM-DIIS:  cpu time    8.5347: real time    8.5358
    ORTHCH:  cpu time    0.7205: real time    0.7206
       DOS:  cpu time    0.0069: real time    0.0069
    CHARGE:  cpu time    0.7631: real time    0.7632
    MIXING:  cpu time    0.0037: real time    0.0049
    --------------------------------------------
      LOOP:  cpu time   12.7712: real time   12.7793

 eigenvalue-minimisations  :  4639
 total energy-change (2. order) : 0.4206290E+02  (-0.1794254E+02)
 number of electron     552.0000349 magnetization 
 augmentation part      128.1471777 magnetization 

 DIPCOR: dipole corrections for dipol
 direction  3 min pos     1,
 dipolmoment           0.000000      0.000000      0.356355 electrons x Angstroem
 Tr[quadrupol]     -7484.742723

 energy correction for charged system         0.000000 eV
 dipol+quadrupol energy correction           -0.004390 eV
 added-field ion interaction         41.652313 eV  (added to PSCEN)


 Broyden mixing:
  rms(total) = 0.44434E+01    rms(broyden)= 0.44427E+01
  rms(prec ) = 0.45630E+01
  weight for this iteration     100.00

 eigenvalues of (default mixing * dielectric matrix)
  average eigenvalue GAMMA=   1.1754
  1.1754

 Free energy of the ion-electron system (eV)
  ---------------------------------------------------
  alpha Z        PSCENC =       905.23490854
  Ewald energy   TEWEN  =    223617.10055899
  -Hartree energ DENC   =   -260482.47301297
  -exchange      EXHF   =         0.00000000
  -V(xc)+E(xc)   XCENC  =       901.38608809
  PAW double counting   =     38254.49219830   -37295.80624358
  entropy T*S    EENTRO =        -0.41895486
  eigenvalues    EBANDS =     -3626.66207001
  atomic energy  EATOM  =     37193.95212048
  Solvation  Ediel_sol  =         0.00000000
  ---------------------------------------------------
  free energy    TOTEN  =      -533.19440701 eV

  energy without entropy =     -532.77545215  energy(sigma->0) =     -532.98492958


--------------------------------------------------------------------------------------------------------




--------------------------------------- Iteration      1(   7)  ---------------------------------------


    POTLOK:  cpu time    0.0814: real time    0.0814
    SETDIJ:  cpu time    0.0133: real time    0.0133
    EDDIAG:  cpu time    2.7192: real time    2.7202
  RMM-DIIS:  cpu time    8.4061: real time    8.4071
    ORTHCH:  cpu time    0.7124: real time    0.7125
       DOS:  cpu time    0.0064: real time    0.0064
    CHARGE:  cpu time    0.7752: real time    0.7753
    MIXING:  cpu time    0.0034: real time    0.0034
    --------------------------------------------
      LOOP:  cpu time   12.7174: real time   12.7196

 eigenvalue-minimisations  :  4674
 total energy-change (2. order) :-0.7208905E+02  (-0.1171009E+02)
 number of electron     552.0000292 magnetization 
 augmentation part      123.1464529 magnetization 

 DIPCOR: dipole corrections for dipol
 direction  3 min pos     1,
 dipolmoment           0.000000      0.000000     -2.620999 electrons x Angstroem
 Tr[quadrupol]     -7462.147442

 energy correction for charged system         0.000000 eV
 dipol+quadrupol energy correction           -0.237467 eV
 added-field ion interaction       -306.353781 eV  (added to PSCEN)


 Broyden mixing:
  rms(total) = 0.64993E+01    rms(broyden)= 0.64991E+01
  rms(prec ) = 0.77602E+01
  weight for this iteration     100.00

 eigenvalues of (default mixing * dielectric matrix)
  average eigenvalue GAMMA=   0.8589
  1.4430  0.2747

 Free energy of the ion-electron system (eV)
  ---------------------------------------------------
  alpha Z        PSCENC =       556.99573686
  Ewald energy   TEWEN  =    223617.10055899
  -Hartree energ DENC   =   -260490.75938198
  -exchange      EXHF   =         0.00000000
  -V(xc)+E(xc)   XCENC  =       904.56491754
  PAW double counting   =     41511.33252157   -40573.88297126
  entropy T*S    EENTRO =        -0.22944169
  eigenvalues    EBANDS =     -3324.35752176
  atomic energy  EATOM  =     37193.95212048
  Solvation  Ediel_sol  =         0.00000000
  ---------------------------------------------------
  free energy    TOTEN  =      -605.28346124 eV

  energy without entropy =     -605.05401955  energy(sigma->0) =     -605.16874039


--------------------------------------------------------------------------------------------------------




--------------------------------------- Iteration      1(   8)  ---------------------------------------


    POTLOK:  cpu time    0.0863: real time    0.0870
    SETDIJ:  cpu time    0.0141: real time    0.0141
    EDDIAG:  cpu time    2.7351: real time    2.7355
  RMM-DIIS:  cpu time    7.6560: real time    7.6570
    ORTHCH:  cpu time    0.7035: real time    0.7036
       DOS:  cpu time    0.0066: real time    0.0066
    CHARGE:  cpu time    0.5776: real time    0.5777
    MIXING:  cpu time    0.0040: real time    0.0040
    --------------------------------------------
      LOOP:  cpu time   11.7833: real time   11.7855

 eigenvalue-minimisations  :  4640
 total energy-change (2. order) : 0.2747370E+02  (-0.7579326E+01)
 number of electron     552.0000346 magnetization 
 augmentation part      131.6499361 magnetization 

 DIPCOR: dipole corrections for dipol
 direction  3 min pos     1,
 dipolmoment           0.000000      0.000000      2.558376 electrons x Angstroem
 Tr[quadrupol]     -7499.454485

 energy correction for charged system         0.000000 eV
 dipol+quadrupol energy correction           -0.226255 eV
 added-field ion interaction        299.034158 eV  (added to PSCEN)


 Broyden mixing:
  rms(total) = 0.62733E+01    rms(broyden)= 0.62634E+01
  rms(prec ) = 0.76604E+01
  weight for this iteration     100.00

 eigenvalues of (default mixing * dielectric matrix)
  average eigenvalue GAMMA=   0.6262
  1.4365  0.3168  0.1253

 Free energy of the ion-electron system (eV)
  ---------------------------------------------------
  alpha Z        PSCENC =      1162.39488824
  Ewald energy   TEWEN  =    223617.10055899
  -Hartree energ DENC   =   -260528.19915414
  -exchange      EXHF   =         0.00000000
  -V(xc)+E(xc)   XCENC  =       904.88256264
  PAW double counting   =     42619.97559979   -41694.07530968
  entropy T*S    EENTRO =        -0.20982006
  eigenvalues    EBANDS =     -3853.63120597
  atomic energy  EATOM  =     37193.95212048
  Solvation  Ediel_sol  =         0.00000000
  ---------------------------------------------------
  free energy    TOTEN  =      -577.80975970 eV

  energy without entropy =     -577.59993964  energy(sigma->0) =     -577.70484967


--------------------------------------------------------------------------------------------------------




--------------------------------------- Iteration      1(   9)  ---------------------------------------


    POTLOK:  cpu time    0.0762: real time    0.0774
    SETDIJ:  cpu time    0.0097: real time    0.0104
    EDDIAG:  cpu time    2.3575: real time    2.3578
  RMM-DIIS:  cpu time    7.0039: real time    7.0047
    ORTHCH:  cpu time    0.7464: real time    0.7465
       DOS:  cpu time    0.0069: real time    0.0069
    CHARGE:  cpu time    0.5691: real time    0.5692
    MIXING:  cpu time    0.0037: real time    0.0037
    --------------------------------------------
      LOOP:  cpu time   10.7734: real time   10.7766

 eigenvalue-minimisations  :  4638
 total energy-change (2. order) : 0.4044418E+02  (-0.1321539E+01)
 number of electron     552.0000310 magnetization 
 augmentation part      128.4734959 magnetization 

 DIPCOR: dipole corrections for dipol
 direction  3 min pos     1,
 dipolmoment           0.000000      0.000000     -0.750905 electrons x Angstroem
 Tr[quadrupol]     -7492.847861

 energy correction for charged system         0.000000 eV
 dipol+quadrupol energy correction           -0.019491 eV
 added-field ion interaction        -87.769081 eV  (added to PSCEN)


 Broyden mixing:
  rms(total) = 0.28853E+01    rms(broyden)= 0.28714E+01
  rms(prec ) = 0.31028E+01
  weight for this iteration     100.00

 eigenvalues of (default mixing * dielectric matrix)
  average eigenvalue GAMMA=   0.6809
  1.7706  0.4001  0.4001  0.1529

 Free energy of the ion-electron system (eV)
  ---------------------------------------------------
  alpha Z        PSCENC =       775.79841296
  Ewald energy   TEWEN  =    223617.10055899
  -Hartree energ DENC   =   -260783.62548276
  -exchange      EXHF   =         0.00000000
  -V(xc)+E(xc)   XCENC  =       903.55837027
  PAW double counting   =     42896.62945408   -41971.19207388
  entropy T*S    EENTRO =        -0.33506643
  eigenvalues    EBANDS =     -3169.25187228
  atomic energy  EATOM  =     37193.95212048
  Solvation  Ediel_sol  =         0.00000000
  ---------------------------------------------------
  free energy    TOTEN  =      -537.36557856 eV

  energy without entropy =     -537.03051213  energy(sigma->0) =     -537.19804535


--------------------------------------------------------------------------------------------------------




--------------------------------------- Iteration      1(  10)  ---------------------------------------


    POTLOK:  cpu time    0.0771: real time    0.0774
    SETDIJ:  cpu time    0.0103: real time    0.0103
    EDDIAG:  cpu time    2.4925: real time    2.4928
  RMM-DIIS:  cpu time    7.9600: real time    7.9610
    ORTHCH:  cpu time    0.7478: real time    0.7479
       DOS:  cpu time    0.0065: real time    0.0065
    CHARGE:  cpu time    0.7633: real time    0.7634
    MIXING:  cpu time    0.0039: real time    0.0039
    --------------------------------------------
      LOOP:  cpu time   12.0614: real time   12.0632

 eigenvalue-minimisations  :  4644
 total energy-change (2. order) :-0.1014870E+02  (-0.4407441E+01)
 number of electron     552.0000363 magnetization 
 augmentation part      133.3168933 magnetization 

 DIPCOR: dipole corrections for dipol
 direction  3 min pos     1,
 dipolmoment           0.000000      0.000000      1.141987 electrons x Angstroem
 Tr[quadrupol]     -7482.143961

 energy correction for charged system         0.000000 eV
 dipol+quadrupol energy correction           -0.045081 eV
 added-field ion interaction        133.480419 eV  (added to PSCEN)


 Broyden mixing:
  rms(total) = 0.52695E+01    rms(broyden)= 0.52616E+01
  rms(prec ) = 0.64386E+01
  weight for this iteration     100.00

 eigenvalues of (default mixing * dielectric matrix)
  average eigenvalue GAMMA=   0.7220
  2.0044  0.8790  0.2996  0.2996  0.1275

 Free energy of the ion-electron system (eV)
  ---------------------------------------------------
  alpha Z        PSCENC =       997.02232381
  Ewald energy   TEWEN  =    223617.10055899
  -Hartree energ DENC   =   -260342.93897125
  -exchange      EXHF   =         0.00000000
  -V(xc)+E(xc)   XCENC  =       907.41834170
  PAW double counting   =     43917.59423964   -42999.71644678
  entropy T*S    EENTRO =        -0.16204471
  eigenvalues    EBANDS =     -3837.78439813
  atomic energy  EATOM  =     37193.95212048
  Solvation  Ediel_sol  =         0.00000000
  ---------------------------------------------------
  free energy    TOTEN  =      -547.51427625 eV

  energy without entropy =     -547.35223153  energy(sigma->0) =     -547.43325389


--------------------------------------------------------------------------------------------------------




--------------------------------------- Iteration      1(  11)  ---------------------------------------


    POTLOK:  cpu time    0.0774: real time    0.0800
    SETDIJ:  cpu time    0.0102: real time    0.0102
    EDDIAG:  cpu time    2.6233: real time    2.6236
  RMM-DIIS:  cpu time    8.0702: real time    8.0712
    ORTHCH:  cpu time    0.7664: real time    0.7665
       DOS:  cpu time    0.0067: real time    0.0067
    CHARGE:  cpu time    0.7066: real time    0.7067
    MIXING:  cpu time    0.0038: real time    0.0038
    --------------------------------------------
      LOOP:  cpu time   12.2646: real time   12.2687

 eigenvalue-minimisations  :  4637
 total energy-change (2. order) : 0.6969949E+01  (-0.1514753E+01)
 number of electron     552.0000368 magnetization 
 augmentation part      128.6434931 magnetization 

 DIPCOR: dipole corrections for dipol
 direction  3 min pos     1,
 dipolmoment           0.000000      0.000000     -1.133192 electrons x Angstroem
 Tr[quadrupol]     -7489.134580

 energy correction for charged system         0.000000 eV
 dipol+quadrupol energy correction           -0.044389 eV
 added-field ion interaction       -132.452407 eV  (added to PSCEN)


 Broyden mixing:
  rms(total) = 0.35499E+01    rms(broyden)= 0.35387E+01
  rms(prec ) = 0.37555E+01
  weight for this iteration     100.00

 eigenvalues of (default mixing * dielectric matrix)
  average eigenvalue GAMMA=   0.6828
  2.2216  0.8853  0.3110  0.3110  0.2370  0.1312

 Free energy of the ion-electron system (eV)
  ---------------------------------------------------
  alpha Z        PSCENC =       731.09018955
  Ewald energy   TEWEN  =    223617.10055899
  -Hartree energ DENC   =   -260770.32435453
  -exchange      EXHF   =         0.00000000
  -V(xc)+E(xc)   XCENC  =       908.14440078
  PAW double counting   =     44839.34539447   -43921.60541808
  entropy T*S    EENTRO =        -0.36039732
  eigenvalues    EBANDS =     -3137.88682197
  atomic energy  EATOM  =     37193.95212048
  Solvation  Ediel_sol  =         0.00000000
  ---------------------------------------------------
  free energy    TOTEN  =      -540.54432763 eV

  energy without entropy =     -540.18393031  energy(sigma->0) =     -540.36412897


--------------------------------------------------------------------------------------------------------




--------------------------------------- Iteration      1(  12)  ---------------------------------------


    POTLOK:  cpu time    0.0780: real time    0.0780
    SETDIJ:  cpu time    0.0101: real time    0.0101
    EDDIAG:  cpu time    2.5871: real time    2.5882
  RMM-DIIS:  cpu time    7.2510: real time    7.2519
    ORTHCH:  cpu time    0.7456: real time    0.7457
       DOS:  cpu time    0.0070: real time    0.0070
    CHARGE:  cpu time    0.7592: real time    0.7593
    MIXING:  cpu time    0.0041: real time    0.0041
    --------------------------------------------
      LOOP:  cpu time   11.4421: real time   11.4443

 eigenvalue-minimisations  :  4636
 total energy-change (2. order) : 0.7665506E+01  (-0.5643933E+00)
 number of electron     552.0000354 magnetization 
 augmentation part      129.0434749 magnetization 

 DIPCOR: dipole corrections for dipol
 direction  3 min pos     1,
 dipolmoment           0.000000      0.000000     -0.865647 electrons x Angstroem
 Tr[quadrupol]     -7489.769793

 energy correction for charged system         0.000000 eV
 dipol+quadrupol energy correction           -0.025903 eV
 added-field ion interaction       -101.180616 eV  (added to PSCEN)


 Broyden mixing:
  rms(total) = 0.21348E+01    rms(broyden)= 0.21340E+01
  rms(prec ) = 0.22826E+01
  weight for this iteration     100.00

 eigenvalues of (default mixing * dielectric matrix)
  average eigenvalue GAMMA=   0.7018
  2.4267  1.0248  0.4103  0.4103  0.2554  0.2554  0.1295

 Free energy of the ion-electron system (eV)
  ---------------------------------------------------
  alpha Z        PSCENC =       762.38046666
  Ewald energy   TEWEN  =    223617.10055899
  -Hartree energ DENC   =   -260747.74049980
  -exchange      EXHF   =         0.00000000
  -V(xc)+E(xc)   XCENC  =       907.51902099
  PAW double counting   =     45255.59920621   -44341.69534383
  entropy T*S    EENTRO =        -0.46283036
  eigenvalues    EBANDS =     -3179.53152099
  atomic energy  EATOM  =     37193.95212048
  Solvation  Ediel_sol  =         0.00000000
  ---------------------------------------------------
  free energy    TOTEN  =      -532.87882164 eV

  energy without entropy =     -532.41599129  energy(sigma->0) =     -532.64740647


--------------------------------------------------------------------------------------------------------




--------------------------------------- Iteration      1(  13)  ---------------------------------------


    POTLOK:  cpu time    0.0765: real time    0.0765
    SETDIJ:  cpu time    0.0102: real time    0.0102
    EDDIAG:  cpu time    2.5382: real time    2.5385
  RMM-DIIS:  cpu time    7.1390: real time    7.1399
    ORTHCH:  cpu time    0.7472: real time    0.7472
       DOS:  cpu time    0.0066: real time    0.0066
    CHARGE:  cpu time    0.5759: real time    0.5760
    MIXING:  cpu time    0.0054: real time    0.0054
    --------------------------------------------
      LOOP:  cpu time   11.0990: real time   11.1004

 eigenvalue-minimisations  :  4635
 total energy-change (2. order) : 0.3343958E+01  (-0.6714121E+00)
 number of electron     552.0000327 magnetization 
 augmentation part      128.9318013 magnetization 

 DIPCOR: dipole corrections for dipol
 direction  3 min pos     1,
 dipolmoment           0.000000      0.000000     -0.956536 electrons x Angstroem
 Tr[quadrupol]     -7492.234196

 energy correction for charged system         0.000000 eV
 dipol+quadrupol energy correction           -0.031628 eV
 added-field ion interaction       -111.804064 eV  (added to PSCEN)


 Broyden mixing:
  rms(total) = 0.11799E+01    rms(broyden)= 0.11796E+01
  rms(prec ) = 0.12905E+01
  weight for this iteration     100.00

 eigenvalues of (default mixing * dielectric matrix)
  average eigenvalue GAMMA=   0.6552
  2.3624  1.0724  0.4385  0.4385  0.2944  0.2944  0.1298  0.2113

 Free energy of the ion-electron system (eV)
  ---------------------------------------------------
  alpha Z        PSCENC =       751.75129326
  Ewald energy   TEWEN  =    223617.10055899
  -Hartree energ DENC   =   -260809.89400995
  -exchange      EXHF   =         0.00000000
  -V(xc)+E(xc)   XCENC  =       907.10507885
  PAW double counting   =     45557.89044302   -44646.26769057
  entropy T*S    EENTRO =        -0.36589128
  eigenvalues    EBANDS =     -3100.80676683
  atomic energy  EATOM  =     37193.95212048
  Solvation  Ediel_sol  =         0.00000000
  ---------------------------------------------------
  free energy    TOTEN  =      -529.53486401 eV

  energy without entropy =     -529.16897273  energy(sigma->0) =     -529.35191837


--------------------------------------------------------------------------------------------------------




--------------------------------------- Iteration      1(  14)  ---------------------------------------


    POTLOK:  cpu time    0.0769: real time    0.0787
    SETDIJ:  cpu time    0.0097: real time    0.0104
    EDDIAG:  cpu time    2.3573: real time    2.3576
  RMM-DIIS:  cpu time    7.8065: real time    7.8075
    ORTHCH:  cpu time    0.7561: real time    0.7562
       DOS:  cpu time    0.0069: real time    0.0069
    CHARGE:  cpu time    0.5688: real time    0.5689
    MIXING:  cpu time    0.0050: real time    0.0050
    --------------------------------------------
      LOOP:  cpu time   11.5872: real time   11.5912

 eigenvalue-minimisations  :  4660
 total energy-change (2. order) : 0.8056255E+00  (-0.1531717E+00)
 number of electron     552.0000320 magnetization 
 augmentation part      128.8192654 magnetization 

 DIPCOR: dipole corrections for dipol
 direction  3 min pos     1,
 dipolmoment           0.000000      0.000000     -1.113756 electrons x Angstroem
 Tr[quadrupol]     -7491.281285

 energy correction for charged system         0.000000 eV
 dipol+quadrupol energy correction           -0.042879 eV
 added-field ion interaction       -130.180639 eV  (added to PSCEN)


 Broyden mixing:
  rms(total) = 0.69954E+00    rms(broyden)= 0.69946E+00
  rms(prec ) = 0.72826E+00
  weight for this iteration     100.00

 eigenvalues of (default mixing * dielectric matrix)
  average eigenvalue GAMMA=   0.6036
  2.2880  1.0693  0.4311  0.4311  0.3222  0.3222  0.1297  0.2195  0.2195

 Free energy of the ion-electron system (eV)
  ---------------------------------------------------
  alpha Z        PSCENC =       733.36346694
  Ewald energy   TEWEN  =    223617.10055899
  -Hartree energ DENC   =   -260815.04480334
  -exchange      EXHF   =         0.00000000
  -V(xc)+E(xc)   XCENC  =       907.13227787
  PAW double counting   =     45486.82056609   -44574.67682993
  entropy T*S    EENTRO =        -0.35124410
  eigenvalues    EBANDS =     -3077.02535149
  atomic energy  EATOM  =     37193.95212048
  Solvation  Ediel_sol  =         0.00000000
  ---------------------------------------------------
  free energy    TOTEN  =      -528.72923848 eV

  energy without entropy =     -528.37799439  energy(sigma->0) =     -528.55361643


--------------------------------------------------------------------------------------------------------




--------------------------------------- Iteration      1(  15)  ---------------------------------------


    POTLOK:  cpu time    0.0761: real time    0.0768
    SETDIJ:  cpu time    0.0103: real time    0.0103
    EDDIAG:  cpu time    2.7559: real time    2.7563
  RMM-DIIS:  cpu time    7.9776: real time    7.9786
    ORTHCH:  cpu time    0.7242: real time    0.7243
       DOS:  cpu time    0.0067: real time    0.0067
    CHARGE:  cpu time    0.7616: real time    0.7617
    MIXING:  cpu time    0.0046: real time    0.0046
    --------------------------------------------
      LOOP:  cpu time   12.3170: real time   12.3193

 eigenvalue-minimisations  :  4664
 total energy-change (2. order) : 0.1833378E+00  (-0.1675532E-01)
 number of electron     552.0000319 magnetization 
[...]
   -.383E+02 -.314E+02 -.121E+04   0.203E+02 0.441E+02 0.118E+04   0.167E+02 -.132E+02 0.361E+02   -.130E-01 -.283E-02 0.106E-01
   0.156E+02 0.793E+02 -.114E+04   -.203E+02 -.122E+03 0.116E+04   0.536E+01 0.422E+02 -.152E+02   0.600E-02 -.958E-02 0.319E-01
   0.815E+02 0.819E+02 -.127E+04   -.112E+03 -.105E+03 0.128E+04   0.296E+02 0.227E+02 -.105E+02   0.224E-02 0.302E-02 0.596E-02
   -.292E+02 -.328E+01 -.126E+04   0.336E+02 0.104E+02 0.130E+04   -.484E+01 -.752E+01 -.393E+02   -.101E-01 0.205E-02 0.236E-01
   -.328E+02 -.589E+02 -.124E+04   0.503E+02 0.951E+02 0.126E+04   -.176E+02 -.360E+02 -.175E+02   0.383E-02 -.106E-01 0.218E-03
   -.497E+02 -.227E+02 -.103E+04   0.750E+02 0.246E+02 0.106E+04   -.236E+02 -.101E+01 -.324E+02   -.885E-04 0.227E-01 0.560E-01
   -.234E+02 0.647E+02 -.991E+03   0.412E+02 -.101E+03 0.978E+03   -.176E+02 0.356E+02 0.136E+02   0.286E-01 0.366E-02 0.896E-01
   0.290E+02 0.611E+02 -.111E+04   -.700E+02 -.700E+02 0.110E+04   0.419E+02 0.911E+01 0.812E+01   0.532E-02 -.109E-01 0.592E-02
   -.420E+01 -.104E+02 -.102E+04   0.164E+02 0.108E+01 0.106E+04   -.119E+02 0.920E+01 -.375E+02   -.108E-01 0.336E-01 -.349E-01
   -.368E+02 -.511E+02 -.117E+04   0.499E+02 0.855E+02 0.118E+04   -.135E+02 -.356E+02 -.111E+02   0.887E-02 0.357E-02 0.154E-02
   0.255E+02 -.783E+02 -.114E+04   -.555E+02 0.108E+03 0.115E+04   0.305E+02 -.300E+02 -.999E+01   -.102E-01 0.207E-02 0.867E-02
   0.130E+02 -.993E+02 -.114E+04   -.979E+01 0.143E+03 0.113E+04   -.469E+01 -.436E+02 0.990E+01   0.109E-01 0.988E-02 0.188E-01
   -.436E+02 -.234E+02 -.121E+04   0.740E+02 0.120E+02 0.117E+04   -.308E+02 0.112E+02 0.312E+02   0.666E-02 0.541E-02 0.118E-01
   0.353E+02 0.288E+01 -.109E+04   -.531E+02 0.352E+02 0.110E+04   0.185E+02 -.373E+02 -.464E+01   -.941E-02 0.453E-02 0.179E-01
   -.500E+02 -.553E+02 -.101E+04   0.852E+02 0.703E+02 0.992E+03   -.356E+02 -.155E+02 0.200E+02   -.117E-01 -.802E-02 -.270E-02
   0.220E+02 0.214E+01 -.107E+04   -.356E+02 0.318E+02 0.105E+04   0.142E+02 -.342E+02 0.190E+02   -.118E-01 -.135E-02 0.109E-01
   0.530E+02 0.343E+02 -.128E+04   -.394E+02 -.758E+01 0.130E+04   -.149E+02 -.274E+02 -.222E+02   -.121E-01 0.154E-02 0.269E-01
   -.120E+01 -.358E+01 0.280E+04   0.760E+00 0.317E+01 -.280E+04   0.580E-01 -.166E-01 -.120E+01   0.370E+00 0.395E+00 -.426E+00
   0.248E+01 -.403E+01 0.281E+04   -.239E+01 0.362E+01 -.280E+04   -.731E-01 0.620E-02 -.108E+01   0.953E-02 0.390E+00 -.189E+00
   -.128E+01 -.351E+01 0.281E+04   0.165E+01 0.302E+01 -.281E+04   -.517E-02 0.340E-01 -.123E+01   -.380E+00 0.368E+00 -.414E+00
   -.746E+00 -.495E+00 0.280E+04   0.103E+01 0.289E+00 -.280E+04   -.153E+00 -.464E-01 -.113E+01   -.165E-01 0.253E+00 -.238E+00
   0.438E+00 0.941E+00 0.280E+04   -.747E+00 -.129E+01 -.280E+04   -.787E-01 0.568E-01 -.111E+01   0.407E+00 0.229E+00 -.993E-02
   0.667E+00 -.157E+01 0.280E+04   -.248E+00 0.123E+01 -.280E+04   0.311E-02 0.353E-01 -.115E+01   -.390E+00 0.265E+00 0.228E-01
   0.497E+00 0.374E+01 0.281E+04   -.853E+00 -.328E+01 -.280E+04   0.582E-02 -.343E-01 -.113E+01   0.342E+00 -.409E+00 -.219E+00
   -.477E+00 0.391E+01 0.281E+04   0.537E+00 -.343E+01 -.280E+04   -.882E-01 -.388E-01 -.133E+01   0.646E-01 -.429E+00 0.609E-01
   0.351E+00 0.395E+01 0.280E+04   0.289E+00 -.358E+01 -.280E+04   -.742E-01 0.106E-01 -.122E+01   -.410E+00 -.372E+00 -.150E+00
   -.106E+01 0.163E+00 0.281E+04   0.106E+01 0.245E+00 -.281E+04   0.334E-01 -.123E+00 -.959E+00   -.509E-01 -.223E+00 -.488E+00
   0.845E+00 -.711E+00 0.281E+04   -.111E+01 0.992E+00 -.281E+04   -.925E-01 -.272E-01 -.108E+01   0.396E+00 -.209E+00 -.253E+00
   0.183E+00 0.129E+01 0.281E+04   0.106E-01 -.999E+00 -.281E+04   0.110E+00 -.449E-02 -.112E+01   -.345E+00 -.258E+00 -.236E+00
   -.217E+02 -.964E+01 0.985E+03   0.218E+02 0.922E+01 -.985E+03   0.102E+00 -.952E-01 0.750E+00   -.236E-02 0.549E+00 -.246E+00
   0.103E+02 -.109E+02 0.957E+03   -.108E+02 0.104E+02 -.957E+03   -.606E-01 0.164E-01 0.108E+01   0.504E+00 0.538E+00 -.327E+00
   0.122E+02 -.187E+02 0.995E+03   -.118E+02 0.183E+02 -.995E+03   -.105E+00 -.460E-01 0.324E+00   -.501E+00 0.604E+00 -.331E+00
   0.131E+02 0.172E+02 0.977E+03   -.135E+02 -.173E+02 -.977E+03   -.445E+00 -.197E+00 0.404E+00   0.455E+00 0.884E-01 -.228E+00
   -.730E+01 0.701E+01 0.975E+03   0.728E+01 -.721E+01 -.975E+03   0.217E-01 0.592E-01 0.629E+00   0.895E-01 0.136E+00 -.286E+00
   0.445E+01 -.421E+01 0.967E+03   -.384E+01 0.411E+01 -.967E+03   -.189E+00 0.665E-01 0.846E+00   -.541E+00 0.140E+00 -.194E+00
   0.719E+01 0.189E+02 0.990E+03   -.674E+01 -.182E+02 -.989E+03   -.476E+00 -.329E+00 0.230E+00   -.106E+00 -.614E+00 -.206E+00
   -.493E+01 0.943E+01 0.997E+03   0.429E+01 -.883E+01 -.997E+03   0.167E+00 -.829E-01 0.272E+00   0.572E+00 -.635E+00 -.264E+00
   0.151E+01 0.196E+02 0.990E+03   -.895E+00 -.191E+02 -.990E+03   -.291E+00 -.195E-01 0.428E+00   -.469E+00 -.645E+00 -.237E+00
   0.189E+01 -.168E+02 0.978E+03   -.239E+01 0.167E+02 -.978E+03   -.167E-01 0.185E+00 0.669E+00   0.444E+00 0.341E-02 -.199E+00
   0.705E+01 -.623E+01 0.100E+04   -.716E+01 0.634E+01 -.100E+04   0.688E-01 -.790E-01 0.288E+00   0.422E-01 -.540E-01 -.275E+00
   -.145E+02 -.230E+01 0.100E+04   0.151E+02 0.227E+01 -.100E+04   0.114E+00 0.204E+00 0.280E+00   -.486E+00 -.110E+00 -.221E+00
   -.445E+02 0.153E+02 -.842E+03   0.446E+02 -.142E+02 0.841E+03   0.410E+00 -.211E+01 0.785E-01   0.896E-02 0.151E+00 0.292E+00
   0.353E+02 -.591E+02 -.800E+03   -.348E+02 0.589E+02 0.800E+03   -.182E+01 0.143E+01 0.509E+00   0.251E+00 0.141E+00 0.513E-01
   0.259E+02 -.143E+02 -.765E+03   -.256E+02 0.147E+02 0.765E+03   -.490E+00 -.261E+00 0.376E+00   -.287E+00 0.135E+00 0.455E-01
   -.397E+02 0.173E+01 -.898E+03   0.390E+02 -.233E+01 0.898E+03   0.967E+00 0.232E+00 0.141E-01   0.229E+00 0.388E+00 0.276E-01
   0.323E+02 -.504E+01 -.821E+03   -.318E+02 0.497E+01 0.821E+03   -.113E+01 -.609E+00 -.268E+00   0.158E-01 0.458E+00 -.239E+00
   0.148E+02 -.626E+02 -.789E+03   -.140E+02 0.617E+02 0.790E+03   -.710E+00 0.131E+01 -.205E-01   -.289E+00 0.497E+00 0.226E-01
   0.884E+01 0.213E+02 -.875E+03   -.960E+01 -.221E+02 0.874E+03   0.125E+01 0.102E+01 0.463E+00   -.155E+00 -.138E+00 -.108E-01
   -.278E+02 0.906E+01 -.761E+03   0.270E+02 -.103E+02 0.761E+03   0.927E+00 0.151E+01 0.852E+00   0.366E+00 -.157E+00 -.239E+00
   0.146E+01 0.343E+02 -.872E+03   -.184E+01 -.336E+02 0.872E+03   0.715E+00 -.130E+01 0.342E+00   -.191E+00 -.183E+00 -.293E+00
   0.330E+01 -.164E+02 -.671E+03   -.384E+01 0.168E+02 0.668E+03   0.189E+00 0.345E+00 0.222E+01   0.227E+00 -.393E+00 0.150E+00
   -.120E+02 0.431E+02 -.836E+03   0.117E+02 -.424E+02 0.836E+03   0.809E+00 -.105E+01 0.548E+00   0.124E+00 -.421E+00 -.117E+00
   -.181E+01 0.287E+02 -.723E+03   0.159E+01 -.283E+02 0.720E+03   0.749E+00 -.517E+00 0.295E+01   -.335E+00 -.482E+00 0.107E+00
 -----------------------------------------------------------------------------------------------
   0.106E+03 0.210E+02 0.195E+02   -.275E-13 0.462E-12 -.150E-10   -.106E+03 -.209E+02 -.144E+02   -.685E-01 -.116E+00 -.494E+01
 
 
 POSITION                                       TOTAL-FORCE (eV/Angst)
 -----------------------------------------------------------------------------------
      1.75933      4.38899     16.53472        -0.152125      0.181222      0.719019
      1.77319      4.65454     15.04662        -0.269480      0.660561     -0.831531
      6.41376      8.14869     15.11595        -0.380297      0.476753      0.293979
      6.57712      6.58400     15.40545        -0.667881     -1.215786      0.704015
      5.18070      9.46529     16.57791         0.148204      0.093579     -0.564394
      5.02466      0.48511     15.14502         0.281616     -0.738440      0.241820
      0.49674      6.96295     14.86600         0.591038      0.020582     -0.164253
      1.87606      7.81310     14.90009        -0.575990     -1.534461     -0.155393
      2.60119      2.10251     21.93714         0.737527     -0.201789     -0.726752
      3.30965      0.78257     22.09935         0.713799      0.174784     -0.533311
      6.59457      5.17311     19.26749        -1.246654      0.563917      0.921171
      6.44576      6.66019     19.45206         1.175577      2.423164     -0.256694
      7.21671      4.00419     24.63415        -0.282365     -1.452649     -0.778123
      6.30632      3.44866     23.50186         0.562410     -0.155434      0.302849
      3.84464      7.69815     22.66280         0.413927      0.829059     -0.814943
      4.99531      8.75962     22.80286         1.248659      0.452495      0.888928
      3.84102      6.99367     20.10548        -0.556729      0.010351     -0.250270
      1.97379      1.35704     18.32035         0.620476      0.327098      0.495838
      1.66786      7.92903     20.69016         0.395418      0.388185      0.604987
      1.27949      8.98670     21.89148        -0.042443     -0.076107     -0.606981
      5.61133      5.11613     21.39709        -0.235584     -0.367892     -0.484575
      4.67419      3.80881     21.68798         0.588745      0.364396     -0.261408
      6.65796      0.48443     20.39491         0.295801     -0.546221     -0.150161
      5.28508      1.02910     20.81271         0.216661      0.268565      0.220421
      6.85039      1.40198     16.15213        -0.895009     -0.706837     -0.494923
      8.09112      1.81364     15.26252        -0.498603     -0.115303      0.765185
      2.18443      0.42814     15.17418        -0.254683      0.518760     -0.615222
      2.33778      9.54531     16.60806        -0.301554     -0.274851     -0.246918
      7.97402      8.22871     20.25195        -0.519481     -0.060173      0.368322
      8.14383      8.82313     18.94814        -0.346317      0.190893     -0.660566
      4.09622      3.78142     15.48389        -0.513249     -0.056332     -0.029181
      5.06994      2.73615     14.91904         0.067240      0.079482     -0.226175
      7.13843      3.02782     18.06161         0.462270      0.292652      1.118017
      7.15624      2.57463     19.62927         0.039896      1.247060     -1.059319
      3.87326      2.03369     19.04990        -0.137855      0.234461     -0.044684
      3.96848      2.65538     17.65031        -0.368710      0.252828      0.162871
      2.20758      4.10175     19.12238         1.332716     -0.738199     -0.020210
      0.74743      4.26074     18.97756         0.032580      0.648145     -0.161097
      0.55353      1.54211     23.14340        -0.081076      0.373990      0.798637
      7.84393      1.24331     22.09221         0.500647      0.093282     -0.078772
      0.74775      1.20986     17.51725        -1.375268      0.477576     -1.189320
      2.73877      6.57697     19.05504        -0.205226     -0.663287     -0.122370
      6.04557      4.28436     16.40114         0.285486      0.837448     -0.197617
      5.99574      5.44636     17.42341         0.011659      0.108745     -0.071106
      4.10892      8.77033     18.67554         0.412191      0.285153      0.214156
      5.58840      9.41055     18.82492        -1.028400     -0.368691     -0.289752
      2.30973      6.23520     22.58898         0.846983      0.233290      0.158867
      3.77000      5.55135     22.61731         0.187252      0.142841     -0.028978
      1.98964      3.98110     15.69084         0.485446     -0.800280      0.290141
      6.92479      7.33552     14.92587         1.393702      0.524357     -1.164358
      5.65100      9.58333     15.69931        -0.914410      0.593198      0.445580
      1.47001      6.86938     14.60285        -0.337972      2.203879      0.937744
      3.44544      1.65783     21.63989        -1.331371      0.041099      1.015099
      5.95225      5.88772     19.63816         0.169739     -3.175684     -0.455049
      7.02057      3.14784     24.12910        -0.186313      1.619023      0.404489
      4.27237      8.54690     22.23426        -1.370059     -0.554219     -0.412012
      1.29502      0.70073     18.10724         0.673836     -0.925173      0.651369
      1.03377      8.16349     21.41686        -0.464094     -0.611532     -0.134429
      5.16846      4.56498     22.08151        -0.419772     -0.418595      0.608362
      6.24312      1.25092     20.82350        -0.154716      0.155595     -0.019609
      7.77736      1.63038     16.19259         1.689942      0.995510     -0.305433
      2.47183      9.28401     15.65873         0.292398     -0.464321      0.668421
      7.39813      8.42095     19.44845         0.966852      0.281699      0.413581
      4.78428      3.14634     15.76455         0.353760     -0.157924      0.335595
      7.35252      3.34944     18.98956        -0.428812     -1.308982     -0.059028
      3.47540      2.74965     18.50371         0.587288     -0.719535     -0.090446
      1.58618      4.79516     18.91501        -1.427397      0.188394     -0.100812
      0.47905      1.23354     22.23822        -0.410700     -0.234612     -0.452155
      3.03231      7.29788     19.62752         0.734692      0.696349      0.249331
      6.50983      5.14874     16.64734        -0.451264     -0.673275     -0.003923
      4.67128      9.56128     18.46127         0.539946     -0.145556     -0.002117
      3.24922      6.34766     22.89257        -1.389120     -0.717970      0.225379
      1.39098      0.80308      7.85055        -0.016875     -0.034005     -0.440899
      4.17294      0.80308      7.85055         0.028250     -0.011330     -0.442717
      6.95491      0.80308      7.85055        -0.022926     -0.088442     -0.460446
      0.00000      3.21233      7.85055         0.108714      0.000172     -0.356583
      2.78196      3.21233      7.85055         0.020559     -0.063236     -0.466373
      5.56393      3.21233      7.85055         0.031646     -0.038567     -0.304272
      1.39098      5.62158      7.85055        -0.005362      0.023708     -0.417517
      4.17294      5.62158      7.85055         0.034879      0.013811     -0.383356
      6.95491      5.62158      7.85055         0.154699      0.010536     -0.445356
      0.00000      8.03084      7.85055        -0.017518      0.061762     -0.412949
      2.78196      8.03084      7.85055         0.040742      0.042674     -0.412486
      5.56393      8.03084      7.85055        -0.041386      0.031340     -0.425575
      0.00000      1.60617     10.12201         0.254273      0.045351      0.423504
      2.78196      1.60617     10.12201        -0.127509      0.063642      0.919192
      5.56393      1.60617     10.12201        -0.159221      0.156392      0.262740
      1.39098      4.01542     10.12201        -0.344473     -0.222881      0.431784
      4.17294      4.01542     10.12201         0.114638     -0.013659      0.544181
      6.95491      4.01542     10.12201        -0.079569      0.107029      0.753443
      0.00000      6.42467     10.12201        -0.108786     -0.216261      0.625684
      2.78196      6.42467     10.12201         0.137405     -0.096586      0.287158
      5.56393      6.42467     10.12201        -0.122206     -0.158896      0.459007
      1.39098      8.83392     10.12201        -0.090077      0.137580      0.825006
      4.17294      8.83392     10.12201        -0.003259     -0.016681      0.212653
      6.95491      8.83392     10.12201         0.191185      0.055270      0.421846
      8.33597      0.07257     12.55077         0.493374     -0.847986     -0.293660
      2.88007      9.56151     12.48616        -0.945997      1.276348     -0.262062
      5.59392      0.00033     12.42668        -0.394427      0.250035      0.140769
      1.31299      2.37258     12.63780         0.450948      0.022766     -0.372144
      4.22948      2.45490     12.52040        -0.534090     -0.189890     -0.219938
      6.95373      2.30583     12.44437        -0.267042      0.746541      0.364249
      8.12219      4.73126     12.59173         0.235258      0.083061     -0.519528
      2.60883      4.70997     12.39394         0.457721      0.061659      0.187804
      5.38742      4.96095     12.55638         0.094501     -0.676925     -0.288357
      1.29102      7.12493     12.42033        -0.159078      0.264808      0.032325
      4.03168      7.27400     12.47485         0.593578     -0.681284     -0.103883
      6.83934      7.27832     12.44136         0.175255     -0.538237      0.349211
 -----------------------------------------------------------------------------------
    total drift:                                0.013226     -0.070075      0.122259


--------------------------------------------------------------------------------------------------------



  FREE ENERGIE OF THE ION-ELECTRON SYSTEM (eV)
  ---------------------------------------------------
  free  energy   TOTEN  =      -558.73961886 eV

  energy  without entropy=     -558.34186255  energy(sigma->0) =     -558.54074070
 
 d Force =-0.2919281E-01[-0.351E+00, 0.293E+00]  d Energy =-0.3249755E-01 0.330E-02
 d Force =-0.1291336E+02[-0.132E+02,-0.126E+02]  d Ewald  =-0.1291574E+02 0.239E-02


--------------------------------------------------------------------------------------------------------


    POTLOK:  cpu time    0.4431: real time    0.4432


--------------------------------------------------------------------------------------------------------


 stress matrix after NEB project (eV)
    -25.83361      0.24923     -0.55296
      0.24923    -25.90525      0.01188
     -0.55296      0.01188    -17.73721
  FORCES: max atom, RMS     3.212608    1.004969
  FORCE total and by dimension   10.443940    3.175684
  Stress total and by dimension   40.666965   25.905248
           RANDOM_SEED =         564444272                0                0
   IONSTEP:  cpu time    0.0002: real time    0.0002

  ENERGY OF THE ELECTRON-ION-THERMOSTAT SYSTEM (eV)
  ---------------------------------------------------
% ion-electron   TOTEN  =      -558.739619  see above
  kinetic energy EKIN   =         3.454822
  kin. lattice  EKIN_LAT=         0.000000  (temperature  318.18 K)
  nose potential ES     =        12.225182
  nose kinetic   EPS    =         0.007477
  ---------------------------------------------------
  total energy   ETOTAL =      -543.052138 eV

  maximum distance moved by ions :      0.56E-02


 mean value of Nose-termostat <S>:     6.533 mean value of <T> :   316.281
 mean temperature <T/S>/<1/S>  :   316.292

    WAVPRE:  cpu time    2.3655: real time    2.3779
    FEWALD:  cpu time    0.0032: real time    0.0032

 real space projection operators:
  total allocation   :      12620.31 KBytes
  max/ min on nodes  :        644.09        284.51

    ORTHCH:  cpu time    1.6820: real time    1.6823
 Prediction of Wavefunctions ALPHA= 1.633 BETA=-0.780
    POTLOK:  cpu time    0.1030: real time    0.1030
    EDDIAG:  cpu time    2.3151: real time    2.3154
     LOOP+:  cpu time  112.8414: real time  112.8908
    4ORBIT:  cpu time    0.0000: real time    0.0000

 total amount of memory used by VASP MPI-rank0   274520. kBytes
=======================================================================

   base      :      30000. kBytes
   nonlr-proj:       4007. kBytes
   fftplans  :       4483. kBytes
   grid      :       8517. kBytes
   one-center:         77. kBytes
   wavefun   :     227436. kBytes
 
  
  
 General timing and accounting informations for this job:
 ========================================================
  
                  Total CPU time used (sec):      782.528
                            User time (sec):      766.833
                          System time (sec):       15.695
                         Elapsed time (sec):      782.901
  
                   Maximum memory used (kb):      447792.
                   Average memory used (kb):           0.
  
                          Minor page faults:       151360
                          Major page faults:           38
                 Voluntary context switches:         1535
