<?xml version="1.0" encoding="ISO-8859-1"?>
<modeling>
 <generator>
  <i name="program" type="string">vasp </i>
  <i name="version" type="string">5.4.4.18Apr17-6-g9f103f2a35  </i>
  <i name="subversion" type="string">(build Feb 25 2019 10:51:38) complex            parallel </i>
  <i name="platform" type="string">LinuxIFC </i>
  <i name="date" type="string">2020 03 19 </i>
  <i name="time" type="string">19:59:24 </i>
 </generator>
 <incar>
  <i type="string" name="SYSTEM"> PtH2O</i>
  <i type="int" name="ISTART">     0</i>
  <i type="string" name="PREC">normal</i>
  <i type="string" name="ALGO"> Fast</i>
  <i type="int" name="NELM">   200</i>
  <i type="int" name="IBRION">     0</i>
  <i name="EDIFF">      0.00010000</i>
  <i name="EDIFFG">      0.00000000</i>
  <i type="int" name="NSW">     3</i>
  <i name="ENCUT">    400.00000000</i>
  <i name="POTIM">      1.00000000</i>
  <i name="TEBEG">    300.00000000</i>
  <i name="SMASS">      0.00000000</i>
  <i type="string" name="LREAL"> AUTO</i>
  <i type="int" name="ISMEAR">     0</i>
  <i name="SIGMA">      0.10000000</i>
  <i type="logical" name="LWAVE"> F  </i>
  <i type="logical" name="LCHARG"> F  </i>
  <i type="int" name="MDALGO">     0</i>
  <v type="int" name="KPOINT_BSE">    -1     0     0     0</v>
  <i type="int" name="NELM">   200</i>
  <i type="string" name="GGA"> RP</i>
  <i type="logical" name="LDIPOL"> T  </i>
  <i type="int" name="IDIPOL">     3</i>
  <v name="DIPOL">      0.50000000      0.50000000      0.50000000</v>
 </incar>
 <structure name="primitive_cell" >
  <crystal>
   <varray name="basis" >
    <v>       8.34588864       0.00000000       0.00000000 </v>
    <v>       0.00000000       9.63700211       0.00000000 </v>
    <v>       0.00000000       0.00000000      32.54292636 </v>
   </varray>
   <i name="volume">   2617.40629856 </i>
   <varray name="rec_basis" >
    <v>       0.11981948       0.00000000       0.00000000 </v>
    <v>       0.00000000       0.10376671       0.00000000 </v>
    <v>       0.00000000       0.00000000       0.03072864 </v>
   </varray>
  </crystal>
  <varray name="positions" >
   <v>       0.20590734       0.45722860      -0.49204207 </v>
   <v>       0.24061401       0.41308569       0.48236961 </v>
   <v>       0.21037265       0.48401963       0.46197192 </v>
   <v>       0.19015730       0.49656169      -0.41902896 </v>
   <v>       0.26633449       0.42255923      -0.41438159 </v>
   <v>       0.08801731       0.44341882      -0.41629054 </v>
   <v>       0.48702574       0.39290628       0.47439359 </v>
   <v>       0.47569965       0.27766554      -0.45850109 </v>
   <v>       0.41583903       0.28546140      -0.43163502 </v>
   <v>       0.17549879      -0.28724395       0.44876860 </v>
   <v>       0.06600537      -0.27559943       0.45747919 </v>
   <v>      -0.42728183       0.32571436       0.48460461 </v>
   <v>       0.09092880       0.12888734      -0.46151725 </v>
   <v>       0.32874132      -0.31424471      -0.41519921 </v>
   <v>      -0.03453959       0.18867389       0.46972734 </v>
   <v>       0.24260799       0.13896865      -0.43701181 </v>
   <v>      -0.06794105       0.16999041       0.49754033 </v>
   <v>      -0.14840635       0.31388194      -0.44410172 </v>
   <v>      -0.21898209      -0.46523573      -0.48871707 </v>
   <v>       0.21856545      -0.19762260       0.45636958 </v>
   <v>      -0.11954050       0.34727821      -0.41646766 </v>
   <v>      -0.27767634       0.45208013      -0.49779674 </v>
   <v>       0.15581409       0.07242673      -0.44345613 </v>
   <v>      -0.39118003       0.28834956       0.45803307 </v>
   <v>       0.47056473       0.21449930      -0.41377446 </v>
   <v>       0.26537104       0.04596856       0.46536285 </v>
   <v>       0.31262178       0.48909938       0.38085374 </v>
   <v>      -0.21772029      -0.32247154       0.47243747 </v>
   <v>      -0.28454098      -0.43235943      -0.46491447 </v>
   <v>      -0.17695771       0.14492735       0.49703086 </v>
   <v>      -0.02740600       0.49106390       0.38698184 </v>
   <v>       0.15707821       0.24637621       0.38838062 </v>
   <v>       0.36421164      -0.24213782      -0.39655857 </v>
   <v>      -0.20911076      -0.46227759      -0.40680289 </v>
   <v>       0.28533895      -0.00855456      -0.49020948 </v>
   <v>      -0.16947976      -0.23855634       0.45859469 </v>
   <v>      -0.13737238       0.27609310      -0.39613301 </v>
   <v>       0.46284263      -0.27638844      -0.38299137 </v>
   <v>       0.29627474      -0.03617164       0.48118047 </v>
   <v>       0.15437053      -0.26090252       0.38167136 </v>
   <v>      -0.49307396       0.25455039       0.38478730 </v>
   <v>      -0.23262488      -0.30528669      -0.40114478 </v>
   <v>      -0.39550927       0.04668596       0.46566488 </v>
   <v>      -0.28622257      -0.38903919      -0.39637055 </v>
   <v>       0.49158002      -0.09197948      -0.42593325 </v>
   <v>      -0.23142167      -0.15050552       0.46587229 </v>
   <v>      -0.02908856      -0.08147253      -0.41728462 </v>
   <v>      -0.35399214      -0.48549585       0.38584282 </v>
   <v>       0.48332494      -0.24547832       0.38333521 </v>
   <v>       0.19950590      -0.17759946      -0.36212096 </v>
   <v>      -0.16672272       0.23899435       0.38248522 </v>
   <v>      -0.11656167      -0.12371100      -0.40269905 </v>
   <v>      -0.44135678      -0.00791107      -0.43265147 </v>
   <v>      -0.37582311      -0.01820873      -0.49017703 </v>
   <v>      -0.04870277      -0.14537841      -0.37681192 </v>
   <v>      -0.43687209       0.39430876      -0.33519048 </v>
   <v>      -0.18016560      -0.24516073       0.38222886 </v>
   <v>       0.31714875       0.21928230      -0.32586356 </v>
   <v>      -0.32242162      -0.00497493       0.48216269 </v>
   <v>       0.41380235       0.17208331      -0.33477738 </v>
   <v>      -0.00086645       0.00755337       0.38561656 </v>
   <v>       0.34488750      -0.00811871       0.38376413 </v>
   <v>       0.12425678      -0.15370835      -0.34153717 </v>
   <v>      -0.32619549      -0.47403699      -0.34223047 </v>
   <v>       0.27710535      -0.35194304      -0.30618467 </v>
   <v>      -0.33921043      -0.02391369      -0.42130232 </v>
   <v>       0.16666667       0.41666667       0.31103576 </v>
   <v>      -0.19778952       0.04820188      -0.37232043 </v>
   <v>      -0.38290013       0.47452438      -0.32152688 </v>
   <v>      -0.25217131       0.13084967      -0.36035967 </v>
   <v>       0.45997303      -0.42218037      -0.30483272 </v>
   <v>      -0.36110230       0.10637010      -0.35855790 </v>
   <v>       0.05784716       0.12866748      -0.31679805 </v>
   <v>      -0.06401319       0.12580719      -0.32159763 </v>
   <v>       0.33333333      -0.33333333       0.31103576 </v>
   <v>       0.38782797      -0.34257446      -0.29641783 </v>
   <v>       0.40301924       0.08394357      -0.32014780 </v>
   <v>      -0.50000000       0.41666667       0.31103576 </v>
   <v>       0.00000000      -0.33333333       0.31103576 </v>
   <v>       0.15356309      -0.06460475      -0.32784842 </v>
   <v>       0.33333333       0.16666667       0.31103576 </v>
   <v>      -0.16666667       0.41666667       0.31103576 </v>
   <v>      -0.32919506       0.00009919       0.38175956 </v>
   <v>       0.00000000       0.16666667       0.31103576 </v>
   <v>       0.45832087      -0.19615969      -0.30351886 </v>
   <v>       0.07021537       0.15594894      -0.28861201 </v>
   <v>      -0.48699977      -0.11405918      -0.31693915 </v>
   <v>      -0.33333333      -0.33333333       0.31103576 </v>
   <v>       0.16666667      -0.08333333       0.31103576 </v>
   <v>      -0.33333333       0.16666667       0.31103576 </v>
   <v>      -0.24779084       0.35450433      -0.27749320 </v>
   <v>      -0.50000000      -0.08333333       0.31103576 </v>
   <v>      -0.15907010       0.32708001      -0.25828316 </v>
   <v>      -0.39634608      -0.09535916      -0.29829558 </v>
   <v>      -0.16666667      -0.08333333       0.31103576 </v>
   <v>      -0.14498798       0.41343565      -0.24310393 </v>
   <v>       0.16666667      -0.41666667       0.24123678 </v>
   <v>       0.33333333       0.33333333       0.24123678 </v>
   <v>       0.00000000       0.33333333       0.24123678 </v>
   <v>      -0.50000000      -0.41666667       0.24123678 </v>
   <v>      -0.16666667      -0.41666667       0.24123678 </v>
   <v>       0.16666667       0.08333333       0.24123678 </v>
   <v>       0.33333333      -0.16666667       0.24123678 </v>
   <v>       0.00000000      -0.16666667       0.24123678 </v>
   <v>      -0.33333333       0.33333333       0.24123678 </v>
   <v>      -0.50000000       0.08333333       0.24123678 </v>
   <v>      -0.16666667       0.08333333       0.24123678 </v>
   <v>      -0.33333333      -0.16666667       0.24123678 </v>
  </varray>
 </structure>
 <varray name="primitive_index" >
  <v type="int" >        1 </v>
  <v type="int" >       49 </v>
  <v type="int" >        2 </v>
  <v type="int" >       67 </v>
  <v type="int" >       37 </v>
  <v type="int" >       38 </v>
  <v type="int" >       31 </v>
  <v type="int" >       36 </v>
  <v type="int" >       66 </v>
  <v type="int" >       52 </v>
  <v type="int" >        7 </v>
  <v type="int" >       64 </v>
  <v type="int" >       41 </v>
  <v type="int" >       42 </v>
  <v type="int" >       26 </v>
  <v type="int" >       18 </v>
  <v type="int" >       61 </v>
  <v type="int" >       33 </v>
  <v type="int" >       70 </v>
  <v type="int" >        8 </v>
  <v type="int" >       65 </v>
  <v type="int" >       43 </v>
  <v type="int" >       57 </v>
  <v type="int" >       32 </v>
  <v type="int" >       35 </v>
  <v type="int" >       27 </v>
  <v type="int" >      104 </v>
  <v type="int" >        4 </v>
  <v type="int" >       44 </v>
  <v type="int" >       25 </v>
  <v type="int" >      103 </v>
  <v type="int" >      100 </v>
  <v type="int" >       69 </v>
  <v type="int" >       11 </v>
  <v type="int" >       28 </v>
  <v type="int" >       50 </v>
  <v type="int" >       34 </v>
  <v type="int" >       17 </v>
  <v type="int" >       62 </v>
  <v type="int" >      106 </v>
  <v type="int" >      101 </v>
  <v type="int" >       12 </v>
  <v type="int" >        6 </v>
  <v type="int" >       54 </v>
  <v type="int" >       45 </v>
  <v type="int" >        3 </v>
  <v type="int" >       30 </v>
  <v type="int" >      105 </v>
  <v type="int" >      107 </v>
  <v type="int" >       19 </v>
  <v type="int" >      102 </v>
  <v type="int" >       63 </v>
  <v type="int" >       71 </v>
  <v type="int" >        5 </v>
  <v type="int" >       29 </v>
  <v type="int" >       22 </v>
  <v type="int" >      108 </v>
  <v type="int" >        9 </v>
  <v type="int" >       51 </v>
  <v type="int" >       53 </v>
  <v type="int" >       97 </v>
  <v type="int" >       98 </v>
  <v type="int" >       58 </v>
  <v type="int" >       21 </v>
  <v type="int" >       47 </v>
  <v type="int" >       46 </v>
  <v type="int" >       88 </v>
  <v type="int" >       23 </v>
  <v type="int" >       59 </v>
  <v type="int" >       60 </v>
  <v type="int" >       48 </v>
  <v type="int" >       24 </v>
  <v type="int" >       68 </v>
  <v type="int" >       40 </v>
  <v type="int" >       92 </v>
  <v type="int" >       72 </v>
  <v type="int" >       10 </v>
  <v type="int" >       89 </v>
  <v type="int" >       91 </v>
  <v type="int" >       20 </v>
  <v type="int" >       86 </v>
  <v type="int" >       90 </v>
  <v type="int" >       99 </v>
  <v type="int" >       85 </v>
  <v type="int" >       15 </v>
  <v type="int" >       39 </v>
  <v type="int" >       56 </v>
  <v type="int" >       93 </v>
  <v type="int" >       94 </v>
  <v type="int" >       87 </v>
  <v type="int" >       14 </v>
  <v type="int" >       95 </v>
  <v type="int" >       55 </v>
  <v type="int" >       16 </v>
  <v type="int" >       96 </v>
  <v type="int" >       13 </v>
  <v type="int" >       79 </v>
  <v type="int" >       77 </v>
  <v type="int" >       76 </v>
  <v type="int" >       80 </v>
  <v type="int" >       81 </v>
  <v type="int" >       73 </v>
  <v type="int" >       83 </v>
  <v type="int" >       82 </v>
  <v type="int" >       78 </v>
  <v type="int" >       74 </v>
  <v type="int" >       75 </v>
  <v type="int" >       84 </v>
 </varray>
 <kpoints>
  <generation param="Gamma">
   <v type="int" name="divisions">       4        3        1 </v>
   <v name="usershift">      0.00000000       0.00000000       0.00000000 </v>
   <v name="genvec1">      0.25000000       0.00000000       0.00000000 </v>
   <v name="genvec2">      0.00000000       0.33333333       0.00000000 </v>
   <v name="genvec3">      0.00000000       0.00000000       1.00000000 </v>
   <v name="shift">      0.00000000       0.00000000       0.00000000 </v>
  </generation>
  <varray name="kpointlist" >
   <v>       0.00000000       0.00000000       0.00000000 </v>
   <v>       0.25000000       0.00000000       0.00000000 </v>
   <v>       0.50000000       0.00000000       0.00000000 </v>
   <v>       0.00000000       0.33333333       0.00000000 </v>
   <v>       0.25000000       0.33333333       0.00000000 </v>
   <v>       0.50000000       0.33333333       0.00000000 </v>
   <v>      -0.25000000       0.33333333       0.00000000 </v>
  </varray>
  <varray name="weights" >
   <v>       0.08333333 </v>
   <v>       0.16666667 </v>
   <v>       0.08333333 </v>
   <v>       0.16666667 </v>
   <v>       0.16666667 </v>
   <v>       0.16666667 </v>
   <v>       0.16666667 </v>
  </varray>
 </kpoints>
 <parameters>
  <separator name="general" >
   <i type="string" name="SYSTEM">PtH2O</i>
   <i type="logical" name="LCOMPAT"> F  </i>
  </separator>
  <separator name="electronic" >
   <i type="string" name="PREC">normal</i>
   <i name="ENMAX">    400.00000000</i>
   <i name="ENAUG">    605.39200000</i>
   <i name="EDIFF">      0.00010000</i>
   <i type="int" name="IALGO">    68</i>
   <i type="int" name="IWAVPR">    12</i>
   <i type="int" name="NBANDS">   331</i>
   <i name="NELECT">    552.00000000</i>
   <i type="int" name="TURBO">     0</i>
   <i type="int" name="IRESTART">     0</i>
   <i type="int" name="NREBOOT">     0</i>
   <i type="int" name="NMIN">     0</i>
   <i name="EREF">      0.00000000</i>
   <separator name="electronic smearing" >
    <i type="int" name="ISMEAR">     0</i>
    <i name="SIGMA">      0.10000000</i>
    <i name="KSPACING">      0.50000000</i>
    <i type="logical" name="KGAMMA"> T  </i>
   </separator>
   <separator name="electronic projectors" >
    <i type="logical" name="LREAL"> T  </i>
    <v name="ROPT">     -0.00050000     -0.00050000     -0.00050000</v>
    <i type="int" name="LMAXPAW">  -100</i>
    <i type="int" name="LMAXMIX">     2</i>
    <i type="logical" name="NLSPLINE"> F  </i>
   </separator>
   <separator name="electronic startup" >
    <i type="int" name="ISTART">     0</i>
    <i type="int" name="ICHARG">     2</i>
    <i type="int" name="INIWAV">     1</i>
   </separator>
   <separator name="electronic spin" >
    <i type="int" name="ISPIN">     1</i>
    <i type="logical" name="LNONCOLLINEAR"> F  </i>
    <v name="MAGMOM">      1.00000000      1.00000000      1.00000000      1.00000000      1.00000000      1.00000000      1.00000000      1.00000000      1.00000000      1.00000000      1.00000000      1.00000000      1.00000000      1.00000000      1.00000000      1.00000000      1.00000000      1.00000000      1.00000000      1.00000000
      1.00000000      1.00000000      1.00000000      1.00000000      1.00000000      1.00000000      1.00000000      1.00000000      1.00000000      1.00000000      1.00000000      1.00000000      1.00000000      1.00000000      1.00000000      1.00000000      1.00000000      1.00000000      1.00000000      1.00000000
      1.00000000      1.00000000      1.00000000      1.00000000      1.00000000      1.00000000      1.00000000      1.00000000      1.00000000      1.00000000      1.00000000      1.00000000      1.00000000      1.00000000      1.00000000      1.00000000      1.00000000      1.00000000      1.00000000      1.00000000
      1.00000000      1.00000000      1.00000000      1.00000000      1.00000000      1.00000000      1.00000000      1.00000000      1.00000000      1.00000000      1.00000000      1.00000000      1.00000000      1.00000000      1.00000000      1.00000000      1.00000000      1.00000000      1.00000000      1.00000000
      1.00000000      1.00000000      1.00000000      1.00000000      1.00000000      1.00000000      1.00000000      1.00000000      1.00000000      1.00000000      1.00000000      1.00000000      1.00000000      1.00000000      1.00000000      1.00000000      1.00000000      1.00000000      1.00000000      1.00000000
      1.00000000      1.00000000      1.00000000      1.00000000      1.00000000      1.00000000      1.00000000      1.00000000</v>
    <i name="NUPDOWN">     -1.00000000</i>
    <i type="logical" name="LSORBIT"> F  </i>
    <v name="SAXIS">      0.00000000      0.00000000      1.00000000</v>
    <i type="logical" name="LSPIRAL"> F  </i>
    <v name="QSPIRAL">      0.00000000      0.00000000      0.00000000</v>
    <i type="logical" name="LZEROZ"> F  </i>
   </separator>
   <separator name="electronic exchange-correlation" >
    <i type="logical" name="LASPH"> F  </i>
    <i type="logical" name="LMETAGGA"> F  </i>
   </separator>
   <separator name="electronic convergence" >
    <i type="int" name="NELM">   200</i>
    <i type="int" name="NELMDL">    -5</i>
    <i type="int" name="NELMIN">     2</i>
    <i name="ENINI">    400.00000000</i>
    <separator name="electronic convergence detail" >
     <i type="logical" name="LDIAG"> T  </i>
     <i type="logical" name="LSUBROT"> F  </i>
     <i name="WEIMIN">      0.00100000</i>
     <i name="EBREAK">      0.00000000</i>
     <i name="DEPER">      0.30000000</i>
     <i type="int" name="NRMM">     4</i>
     <i name="TIME">      0.40000000</i>
    </separator>
   </separator>
   <separator name="electronic mixer" >
    <i name="AMIX">      0.40000000</i>
    <i name="BMIX">      1.00000000</i>
    <i name="AMIN">      0.10000000</i>
    <i name="AMIX_MAG">      1.60000000</i>
    <i name="BMIX_MAG">      1.00000000</i>
    <separator name="electronic mixer details" >
     <i type="int" name="IMIX">     4</i>
     <i type="logical" name="MIXFIRST"> F  </i>
     <i type="int" name="MAXMIX">   -45</i>
     <i name="WC">    100.00000000</i>
     <i type="int" name="INIMIX">     1</i>
     <i type="int" name="MIXPRE">     1</i>
     <i type="int" name="MREMOVE">     5</i>
    </separator>
   </separator>
   <separator name="electronic dipolcorrection" >
    <i type="logical" name="LDIPOL"> T  </i>
    <i type="logical" name="LMONO"> F  </i>
    <i type="int" name="IDIPOL">     3</i>
    <i name="EPSILON">      1.00000000</i>
    <v name="DIPOL">      0.50000000      0.50000000      0.50000000</v>
    <i name="EFIELD">      0.00000000</i>
   </separator>
  </separator>
  <separator name="grids" >
   <i type="int" name="NGX">    42</i>
   <i type="int" name="NGY">    48</i>
   <i type="int" name="NGZ">   160</i>
   <i type="int" name="NGXF">    84</i>
   <i type="int" name="NGYF">    96</i>
   <i type="int" name="NGZF">   320</i>
   <i type="logical" name="ADDGRID"> F  </i>
  </separator>
  <separator name="ionic" >
   <i type="int" name="NSW">     3</i>
   <i type="int" name="IBRION">     0</i>
   <i type="int" name="MDALGO">     0</i>
   <i type="int" name="ISIF">     0</i>
   <i name="PSTRESS">      0.00000000</i>
   <i name="EDIFFG">      0.00000000</i>
   <i type="int" name="NFREE">     0</i>
   <i name="POTIM">      1.00000000</i>
   <i name="SMASS">      0.07314819</i>
   <i name="SCALEE">      1.00000000</i>
  </separator>
  <separator name="ionic md" >
   <i name="TEBEG">    300.00000000</i>
   <i name="TEEND">    300.00000000</i>
   <i type="int" name="NBLOCK">     1</i>
   <i type="int" name="KBLOCK">     3</i>
   <i type="int" name="NPACO">   256</i>
   <i name="APACO">     16.00000000</i>
  </separator>
  <separator name="symmetry" >
   <i type="int" name="ISYM">     2</i>
   <i name="SYMPREC">      0.00001000</i>
  </separator>
  <separator name="dos" >
   <i type="int" name="LORBIT">     0</i>
   <v name="RWIGS">     -1.00000000     -1.00000000     -1.00000000</v>
   <i type="int" name="NEDOS">   301</i>
   <i name="EMIN">     10.00000000</i>
   <i name="EMAX">    -10.00000000</i>
   <i name="EFERMI">      0.00000000</i>
  </separator>
  <separator name="writing" >
   <i type="int" name="NWRITE">     2</i>
   <i type="logical" name="LWAVE"> F  </i>
   <i type="logical" name="LDOWNSAMPLE"> F  </i>
   <i type="logical" name="LCHARG"> F  </i>
   <i type="logical" name="LPARD"> F  </i>
   <i type="logical" name="LVTOT"> F  </i>
   <i type="logical" name="LVHAR"> F  </i>
   <i type="logical" name="LELF"> F  </i>
   <i type="logical" name="LOPTICS"> F  </i>
   <v name="STM">      0.00000000      0.00000000      0.00000000      0.00000000      0.00000000      0.00000000      0.00000000</v>
  </separator>
  <separator name="performance" >
   <i type="int" name="NPAR">     1</i>
   <i type="int" name="NSIM">     4</i>
   <i type="int" name="NBLK">    -1</i>
   <i type="logical" name="LPLANE"> T  </i>
   <i type="logical" name="LSCALAPACK"> T  </i>
   <i type="logical" name="LSCAAWARE"> F  </i>
   <i type="logical" name="LSCALU"> F  </i>
   <i type="logical" name="LASYNC"> F  </i>
   <i type="logical" name="LORBITALREAL"> F  </i>
  </separator>
  <separator name="miscellaneous" >
   <i type="int" name="IDIOT">     3</i>
   <i type="int" name="ISPECIAL">     0</i>
   <i type="logical" name="LMUSIC"> F  </i>
   <v name="POMASS">      1.00000000     16.00000000    195.08000000</v>
   <v name="DARWINR">      0.00000000      0.00000000      0.00000000</v>
   <v name="DARWINV">      1.00000000      1.00000000      1.00000000</v>
   <i type="logical" name="LCORR"> T  </i>
  </separator>
  <i type="logical" name="GGA_COMPAT"> T  </i>
  <i type="logical" name="LBERRY"> F  </i>
  <i type="int" name="ICORELEVEL">     0</i>
  <i type="logical" name="LDAU"> F  </i>
  <i type="int" name="I_CONSTRAINED_M">     0</i>
  <separator name="electronic exchange-correlation" >
   <i type="string" name="GGA">RP</i>
   <i type="int" name="VOSKOWN">     0</i>
   <i type="logical" name="LHFCALC"> F  </i>
   <i type="string" name="PRECFOCK"></i>
   <i type="logical" name="LSYMGRAD"> F  </i>
   <i type="logical" name="LHFONE"> F  </i>
   <i type="logical" name="LRHFCALC"> F  </i>
   <i type="logical" name="LTHOMAS"> F  </i>
   <i type="logical" name="LMODELHF"> F  </i>
   <i name="ENCUT4O">     -1.00000000</i>
   <i type="int" name="EXXOEP">     0</i>
   <i type="int" name="FOURORBIT">     0</i>
   <i name="AEXX">      0.00000000</i>
   <i name="HFALPHA">      0.00000000</i>
   <i name="MCALPHA">      0.00000000</i>
   <i name="ALDAX">      1.00000000</i>
   <i name="AGGAX">      1.00000000</i>
   <i name="ALDAC">      1.00000000</i>
   <i name="AGGAC">      1.00000000</i>
   <i type="int" name="NKREDX">     1</i>
   <i type="int" name="NKREDY">     1</i>
   <i type="int" name="NKREDZ">     1</i>
   <i type="logical" name="SHIFTRED"> F  </i>
   <i type="logical" name="ODDONLY"> F  </i>
   <i type="logical" name="EVENONLY"> F  </i>
   <i type="int" name="LMAXFOCK">     0</i>
   <i type="int" name="NMAXFOCKAE">     0</i>
   <i type="logical" name="LFOCKAEDFT"> F  </i>
   <i name="HFSCREEN">      0.00000000</i>
   <i name="HFSCREENC">      0.00000000</i>
   <i type="int" name="NBANDSGWLOW">     0</i>
  </separator>
  <separator name="vdW DFT" >
   <i type="logical" name="LUSE_VDW"> F  </i>
   <i name="Zab_VDW">     -0.84910000</i>
   <i name="PARAM1">      0.12340000</i>
   <i name="PARAM2">      1.00000000</i>
   <i name="PARAM3">      0.00000000</i>
  </separator>
  <separator name="model GW" >
   <i type="int" name="MODEL_GW">     0</i>
   <i name="MODEL_EPS0">     14.54114610</i>
   <i name="MODEL_ALPHA">      1.00000000</i>
  </separator>
  <separator name="linear response parameters" >
   <i type="logical" name="LEPSILON"> F  </i>
   <i type="logical" name="LRPA"> F  </i>
   <i type="logical" name="LNABLA"> F  </i>
   <i type="logical" name="LVEL"> F  </i>
   <i type="int" name="KINTER">     0</i>
   <i name="CSHIFT">      0.10000000</i>
   <i name="OMEGAMAX">     -1.00000000</i>
   <i name="DEG_THRESHOLD">      0.00200000</i>
   <i name="RTIME">     -0.10000000</i>
   <i name="WPLASMAI">      0.00000000</i>
   <v name="DFIELD">      0.00000000      0.00000000      0.00000000</v>
   <v name="WPLASMA">      0.00000000      0.00000000      0.00000000      0.00000000      0.00000000      0.00000000      0.00000000      0.00000000      0.00000000</v>
  </separator>
  <separator name="orbital magnetization" >
   <i type="logical" name="NUCIND"> F  </i>
   <v name="MAGPOS">      0.00000000      0.00000000      0.00000000</v>
   <i type="logical" name="LNICSALL"> T  </i>
   <i type="logical" name="ORBITALMAG"> F  </i>
   <i type="logical" name="LMAGBLOCH"> F  </i>
   <i type="logical" name="LCHIMAG"> F  </i>
   <i type="logical" name="LGAUGE"> T  </i>
   <i type="int" name="MAGATOM">     0</i>
   <v name="MAGDIPOL">      0.00000000      0.00000000      0.00000000</v>
   <v name="AVECCONST">      0.00000000      0.00000000      0.00000000</v>
  </separator>
  <separator name="response functions" >
   <i type="logical" name="LADDER"> F  </i>
   <i type="logical" name="LRPAFORCE"> F  </i>
   <i type="logical" name="LFXC"> F  </i>
   <i type="logical" name="LHARTREE"> T  </i>
   <i type="int" name="IBSE">     0</i>
   <v type="int" name="KPOINT">    -1     0     0     0</v>
   <i type="logical" name="LTCTE"> F  </i>
   <i type="logical" name="LTETE"> F  </i>
   <i type="logical" name="LTRIPLET"> F  </i>
   <i type="logical" name="LFXCEPS"> F  </i>
   <i type="logical" name="LFXHEG"> F  </i>
   <i type="int" name="NATURALO">     2</i>
   <i type="logical" name="L2ORDER"> F  </i>
   <i type="logical" name="LMP2LT"> F  </i>
   <i type="logical" name="LUSEW"> F  </i>
   <i name="ENCUTGW">     -2.00000000</i>
   <i name="ENCUTGWSOFT">     -2.00000000</i>
   <i name="ENCUTLF">     -1.00000000</i>
   <i type="int" name="LMAXMP2">    -1</i>
   <i name="SCISSOR">      0.00000000</i>
   <i type="int" name="NOMEGA">     0</i>
   <i type="int" name="NOMEGAR">     0</i>
   <i type="int" name="NBANDSGW">    -1</i>
   <i type="int" name="NBANDSO">    -1</i>
   <i type="int" name="NBANDSV">    -1</i>
   <i type="int" name="NELM">   200</i>
   <i type="int" name="NELMHF">     1</i>
   <i type="int" name="DIM">     3</i>
   <i type="int" name="ANTIRES">     0</i>
   <i name="OMEGAMAX">    -30.00000000</i>
   <i name="OMEGAMIN">    -30.00000000</i>
   <i name="OMEGATL">   -200.00000000</i>
   <i type="int" name="OMEGAGRID">   140</i>
   <i name="CSHIFT">     -0.10000000</i>
   <i type="logical" name="SELFENERGY"> F  </i>
   <i type="logical" name="LSPECTRAL"> F  </i>
   <i type="logical" name="LSPECTRALGW"> F  </i>
   <i type="logical" name="LSINGLES"> F  </i>
   <i type="logical" name="LFERMIGW"> F  </i>
   <i type="logical" name="ODDONLYGW"> F  </i>
   <i type="logical" name="EVENONLYGW"> F  </i>
   <i type="int" name="NKREDLFX">     1</i>
   <i type="int" name="NKREDLFY">     1</i>
   <i type="int" name="NKREDLFZ">     1</i>
   <i type="int" name="MAXMEM">  2800</i>
   <i type="int" name="TELESCOPE">     0</i>
   <i type="int" name="TAUPAR">     1</i>
   <i type="int" name="OMEGAPAR">    -1</i>
   <i name="LAMBDA">      1.00000000</i>
  </separator>
  <separator name="External order field" >
   <i name="OFIELD_KAPPA">      0.00000000</i>
   <v name="OFIELD_K">      0.00000000      0.00000000      0.00000000</v>
   <i name="OFIELD_Q6_NEAR">      0.00000000</i>
   <i name="OFIELD_Q6_FAR">      0.00000000</i>
   <i name="OFIELD_A">      0.00000000</i>
  </separator>
  <separator name="solvation model" >
   <i type="logical" name="LSOL"> F  </i>
  </separator>
 </parameters>
 <atominfo>
  <atoms>     108 </atoms>
  <types>       3 </types>
  <array name="atoms" >
   <dimension dim="1">ion</dimension>
   <field type="string">element</field>
   <field type="int">atomtype</field>
   <set>
    <rc><c>H </c><c>   1</c></rc>
    <rc><c>H </c><c>   1</c></rc>
    <rc><c>H </c><c>   1</c></rc>
    <rc><c>H </c><c>   1</c></rc>
    <rc><c>H </c><c>   1</c></rc>
    <rc><c>H </c><c>   1</c></rc>
    <rc><c>H </c><c>   1</c></rc>
    <rc><c>H </c><c>   1</c></rc>
    <rc><c>H </c><c>   1</c></rc>
    <rc><c>H </c><c>   1</c></rc>
    <rc><c>H </c><c>   1</c></rc>
    <rc><c>H </c><c>   1</c></rc>
    <rc><c>H </c><c>   1</c></rc>
    <rc><c>H </c><c>   1</c></rc>
    <rc><c>H </c><c>   1</c></rc>
    <rc><c>H </c><c>   1</c></rc>
    <rc><c>H </c><c>   1</c></rc>
    <rc><c>H </c><c>   1</c></rc>
    <rc><c>H </c><c>   1</c></rc>
    <rc><c>H </c><c>   1</c></rc>
    <rc><c>H </c><c>   1</c></rc>
    <rc><c>H </c><c>   1</c></rc>
    <rc><c>H </c><c>   1</c></rc>
    <rc><c>H </c><c>   1</c></rc>
    <rc><c>H </c><c>   1</c></rc>
    <rc><c>H </c><c>   1</c></rc>
    <rc><c>H </c><c>   1</c></rc>
    <rc><c>H </c><c>   1</c></rc>
    <rc><c>H </c><c>   1</c></rc>
    <rc><c>H </c><c>   1</c></rc>
    <rc><c>H </c><c>   1</c></rc>
    <rc><c>H </c><c>   1</c></rc>
    <rc><c>H </c><c>   1</c></rc>
    <rc><c>H </c><c>   1</c></rc>
    <rc><c>H </c><c>   1</c></rc>
    <rc><c>H </c><c>   1</c></rc>
    <rc><c>H </c><c>   1</c></rc>
    <rc><c>H </c><c>   1</c></rc>
    <rc><c>H </c><c>   1</c></rc>
    <rc><c>H </c><c>   1</c></rc>
    <rc><c>H </c><c>   1</c></rc>
    <rc><c>H </c><c>   1</c></rc>
    <rc><c>H </c><c>   1</c></rc>
    <rc><c>H </c><c>   1</c></rc>
    <rc><c>H </c><c>   1</c></rc>
    <rc><c>H </c><c>   1</c></rc>
    <rc><c>H </c><c>   1</c></rc>
    <rc><c>H </c><c>   1</c></rc>
    <rc><c>O </c><c>   2</c></rc>
    <rc><c>O </c><c>   2</c></rc>
    <rc><c>O </c><c>   2</c></rc>
    <rc><c>O </c><c>   2</c></rc>
    <rc><c>O </c><c>   2</c></rc>
    <rc><c>O </c><c>   2</c></rc>
    <rc><c>O </c><c>   2</c></rc>
    <rc><c>O </c><c>   2</c></rc>
    <rc><c>O </c><c>   2</c></rc>
    <rc><c>O </c><c>   2</c></rc>
    <rc><c>O </c><c>   2</c></rc>
    <rc><c>O </c><c>   2</c></rc>
    <rc><c>O </c><c>   2</c></rc>
    <rc><c>O </c><c>   2</c></rc>
    <rc><c>O </c><c>   2</c></rc>
    <rc><c>O </c><c>   2</c></rc>
    <rc><c>O </c><c>   2</c></rc>
    <rc><c>O </c><c>   2</c></rc>
    <rc><c>O </c><c>   2</c></rc>
    <rc><c>O </c><c>   2</c></rc>
    <rc><c>O </c><c>   2</c></rc>
    <rc><c>O </c><c>   2</c></rc>
    <rc><c>O </c><c>   2</c></rc>
    <rc><c>O </c><c>   2</c></rc>
    <rc><c>Pt</c><c>   3</c></rc>
    <rc><c>Pt</c><c>   3</c></rc>
    <rc><c>Pt</c><c>   3</c></rc>
    <rc><c>Pt</c><c>   3</c></rc>
    <rc><c>Pt</c><c>   3</c></rc>
    <rc><c>Pt</c><c>   3</c></rc>
    <rc><c>Pt</c><c>   3</c></rc>
    <rc><c>Pt</c><c>   3</c></rc>
    <rc><c>Pt</c><c>   3</c></rc>
    <rc><c>Pt</c><c>   3</c></rc>
    <rc><c>Pt</c><c>   3</c></rc>
    <rc><c>Pt</c><c>   3</c></rc>
    <rc><c>Pt</c><c>   3</c></rc>
    <rc><c>Pt</c><c>   3</c></rc>
    <rc><c>Pt</c><c>   3</c></rc>
    <rc><c>Pt</c><c>   3</c></rc>
    <rc><c>Pt</c><c>   3</c></rc>
    <rc><c>Pt</c><c>   3</c></rc>
    <rc><c>Pt</c><c>   3</c></rc>
    <rc><c>Pt</c><c>   3</c></rc>
    <rc><c>Pt</c><c>   3</c></rc>
    <rc><c>Pt</c><c>   3</c></rc>
    <rc><c>Pt</c><c>   3</c></rc>
    <rc><c>Pt</c><c>   3</c></rc>
    <rc><c>Pt</c><c>   3</c></rc>
    <rc><c>Pt</c><c>   3</c></rc>
    <rc><c>Pt</c><c>   3</c></rc>
    <rc><c>Pt</c><c>   3</c></rc>
    <rc><c>Pt</c><c>   3</c></rc>
    <rc><c>Pt</c><c>   3</c></rc>
    <rc><c>Pt</c><c>   3</c></rc>
    <rc><c>Pt</c><c>   3</c></rc>
    <rc><c>Pt</c><c>   3</c></rc>
    <rc><c>Pt</c><c>   3</c></rc>
    <rc><c>Pt</c><c>   3</c></rc>
    <rc><c>Pt</c><c>   3</c></rc>
   </set>
  </array>
  <array name="atomtypes" >
   <dimension dim="1">type</dimension>
   <field type="int">atomspertype</field>
   <field type="string">element</field>
   <field>mass</field>
   <field>valence</field>
   <field type="string">pseudopotential</field>
   <set>
    <rc><c>  48</c><c>H </c><c>      1.00000000</c><c>      1.00000000</c><c>  PAW_PBE H 15Jun2001                   </c></rc>
    <rc><c>  24</c><c>O </c><c>     16.00000000</c><c>      6.00000000</c><c>  PAW_PBE O 08Apr2002                   </c></rc>
    <rc><c>  36</c><c>Pt</c><c>    195.08000000</c><c>     10.00000000</c><c>  PAW_PBE Pt 04Feb2005                  </c></rc>
   </set>
  </array>
 </atominfo>
 <structure name="initialpos" >
  <crystal>
   <varray name="basis" >
    <v>       8.34588864       0.00000000       0.00000000 </v>
    <v>       0.00000000       9.63700211       0.00000000 </v>
    <v>       0.00000000       0.00000000      32.54292636 </v>
   </varray>
   <i name="volume">   2617.40629856 </i>
   <varray name="rec_basis" >
    <v>       0.11981948       0.00000000       0.00000000 </v>
    <v>       0.00000000       0.10376671       0.00000000 </v>
    <v>       0.00000000       0.00000000       0.03072864 </v>
   </varray>
  </crystal>
  <varray name="positions" >
   <v>       0.20590734       0.45722860       0.50795793 </v>
   <v>       0.21037265       0.48401963       0.46197192 </v>
   <v>       0.76857833       0.84949448       0.46587229 </v>
   <v>       0.78227971       0.67752846       0.47243747 </v>
   <v>       0.62417689       0.98179127       0.50982297 </v>
   <v>       0.60449073       0.04668596       0.46566488 </v>
   <v>       0.06600537       0.72440057       0.45747919 </v>
   <v>       0.21856545       0.80237740       0.45636958 </v>
   <v>       0.31714875       0.21928230       0.67413644 </v>
   <v>       0.40301924       0.08394357       0.67985220 </v>
   <v>       0.79088924       0.53772241       0.59319711 </v>
   <v>       0.76737512       0.69471331       0.59885522 </v>
   <v>       0.85501202       0.41343565       0.75689607 </v>
   <v>       0.75220916       0.35450433       0.72250680 </v>
   <v>       0.45832087       0.80384031       0.69648114 </v>
   <v>       0.60365392       0.90464084       0.70170442 </v>
   <v>       0.46284263       0.72361156       0.61700863 </v>
   <v>       0.24260799       0.13896865       0.56298819 </v>
   <v>       0.19950590       0.82240054       0.63787904 </v>
   <v>       0.15356309       0.93539525       0.67215158 </v>
   <v>       0.67380451       0.52596301       0.65776953 </v>
   <v>       0.56312791       0.39430876       0.66480952 </v>
   <v>       0.80221048       0.04820188       0.62767957 </v>
   <v>       0.63889770       0.10637010       0.64144210 </v>
   <v>       0.82304229       0.14492735       0.49703086 </v>
   <v>       0.96546041       0.18867389       0.46972734 </v>
   <v>       0.26537104       0.04596856       0.46536285 </v>
   <v>       0.28533895       0.99144544       0.50979052 </v>
   <v>       0.95129723       0.85462159       0.62318808 </v>
   <v>       0.97091144       0.91852747       0.58271538 </v>
   <v>       0.48702574       0.39290628       0.47439359 </v>
   <v>       0.60881997       0.28834956       0.45803307 </v>
   <v>       0.85159365       0.31388194       0.55589828 </v>
   <v>       0.86262762       0.27609310       0.60386699 </v>
   <v>       0.47056473       0.21449930       0.58622554 </v>
   <v>       0.47569965       0.27766554       0.54149891 </v>
   <v>       0.26633449       0.42255923       0.58561841 </v>
   <v>       0.08801731       0.44341882       0.58370946 </v>
   <v>       0.07021537       0.15594894       0.71138799 </v>
   <v>       0.93598681       0.12580719       0.67840237 </v>
   <v>       0.09092880       0.12888734       0.53848275 </v>
   <v>       0.32874132       0.68575529       0.58480079 </v>
   <v>       0.72232366       0.45208013       0.50220326 </v>
   <v>       0.71545902       0.56764057       0.53508553 </v>
   <v>       0.49158002       0.90802052       0.57406675 </v>
   <v>       0.66078957       0.97608631       0.57869768 </v>
   <v>       0.27710535       0.64805696       0.69381533 </v>
   <v>       0.45997303       0.57781963       0.69516728 </v>
   <v>       0.24061401       0.41308569       0.48236961 </v>
   <v>       0.83052024       0.76144366       0.45859469 </v>
   <v>       0.67757838       0.99502507       0.48216269 </v>
   <v>       0.17549879       0.71275605       0.44876860 </v>
   <v>       0.41380235       0.17208331       0.66522262 </v>
   <v>       0.71377743       0.61096081       0.60362945 </v>
   <v>       0.84092990       0.32708001       0.74171684 </v>
   <v>       0.51300023       0.88594082       0.68306085 </v>
   <v>       0.15581409       0.07242673       0.55654387 </v>
   <v>       0.12425678       0.84629165       0.65846283 </v>
   <v>       0.61709987       0.47452438       0.67847312 </v>
   <v>       0.74782869       0.13084967       0.63964033 </v>
   <v>       0.93205895       0.16999041       0.49754033 </v>
   <v>       0.29627474       0.96382836       0.48118047 </v>
   <v>       0.88343833       0.87628900       0.59730095 </v>
   <v>       0.57271817       0.32571436       0.48460461 </v>
   <v>       0.88045950       0.34727821       0.58353234 </v>
   <v>       0.41583903       0.28546140       0.56836498 </v>
   <v>       0.19015730       0.49656169       0.58097104 </v>
   <v>       0.05784716       0.12866748       0.68320195 </v>
   <v>       0.36421164       0.75786218       0.60344143 </v>
   <v>       0.78101791       0.53476427       0.51128293 </v>
   <v>       0.55864322       0.99208893       0.56734853 </v>
   <v>       0.38782797       0.65742554       0.70358217 </v>
   <v>       0.16666667       0.08333333       0.24123678 </v>
   <v>       0.50000000       0.08333333       0.24123678 </v>
   <v>       0.83333333       0.08333333       0.24123678 </v>
   <v>       0.00000000       0.33333333       0.24123678 </v>
   <v>       0.33333333       0.33333333       0.24123678 </v>
   <v>       0.66666667       0.33333333       0.24123678 </v>
   <v>       0.16666667       0.58333333       0.24123678 </v>
   <v>       0.50000000       0.58333333       0.24123678 </v>
   <v>       0.83333333       0.58333333       0.24123678 </v>
   <v>       0.00000000       0.83333333       0.24123678 </v>
   <v>       0.33333333       0.83333333       0.24123678 </v>
   <v>       0.66666667       0.83333333       0.24123678 </v>
   <v>       0.00000000       0.16666667       0.31103576 </v>
   <v>       0.33333333       0.16666667       0.31103576 </v>
   <v>       0.66666667       0.16666667       0.31103576 </v>
   <v>       0.16666667       0.41666667       0.31103576 </v>
   <v>       0.50000000       0.41666667       0.31103576 </v>
   <v>       0.83333333       0.41666667       0.31103576 </v>
   <v>       0.00000000       0.66666667       0.31103576 </v>
   <v>       0.33333333       0.66666667       0.31103576 </v>
   <v>       0.66666667       0.66666667       0.31103576 </v>
   <v>       0.16666667       0.91666667       0.31103576 </v>
   <v>       0.50000000       0.91666667       0.31103576 </v>
   <v>       0.83333333       0.91666667       0.31103576 </v>
   <v>       0.99913355       0.00755337       0.38561656 </v>
   <v>       0.34488750       0.99188129       0.38376413 </v>
   <v>       0.67080494       0.00009919       0.38175956 </v>
   <v>       0.15707821       0.24637621       0.38838062 </v>
   <v>       0.50692604       0.25455039       0.38478730 </v>
   <v>       0.83327728       0.23899435       0.38248522 </v>
   <v>       0.97259400       0.49106390       0.38698184 </v>
   <v>       0.31262178       0.48909938       0.38085374 </v>
   <v>       0.64600786       0.51450415       0.38584282 </v>
   <v>       0.15437053       0.73909748       0.38167136 </v>
   <v>       0.48332494       0.75452168       0.38333521 </v>
   <v>       0.81983440       0.75483927       0.38222886 </v>
  </varray>
  <varray name="selective"  type="logical" >
   <v type="logical" >  T  T  T </v>
   <v type="logical" >  T  T  T </v>
   <v type="logical" >  T  T  T </v>
   <v type="logical" >  T  T  T </v>
   <v type="logical" >  T  T  T </v>
   <v type="logical" >  T  T  T </v>
   <v type="logical" >  T  T  T </v>
   <v type="logical" >  T  T  T </v>
   <v type="logical" >  T  T  T </v>
   <v type="logical" >  T  T  T </v>
   <v type="logical" >  T  T  T </v>
   <v type="logical" >  T  T  T </v>
   <v type="logical" >  T  T  T </v>
   <v type="logical" >  T  T  T </v>
   <v type="logical" >  T  T  T </v>
   <v type="logical" >  T  T  T </v>
   <v type="logical" >  T  T  T </v>
   <v type="logical" >  T  T  T </v>
   <v type="logical" >  T  T  T </v>
   <v type="logical" >  T  T  T </v>
   <v type="logical" >  T  T  T </v>
   <v type="logical" >  T  T  T </v>
   <v type="logical" >  T  T  T </v>
   <v type="logical" >  T  T  T </v>
   <v type="logical" >  T  T  T </v>
   <v type="logical" >  T  T  T </v>
   <v type="logical" >  T  T  T </v>
   <v type="logical" >  T  T  T </v>
   <v type="logical" >  T  T  T </v>
   <v type="logical" >  T  T  T </v>
   <v type="logical" >  T  T  T </v>
   <v type="logical" >  T  T  T </v>
   <v type="logical" >  T  T  T </v>
   <v type="logical" >  T  T  T </v>
   <v type="logical" >  T  T  T </v>
   <v type="logical" >  T  T  T </v>
   <v type="logical" >  T  T  T </v>
   <v type="logical" >  T  T  T </v>
   <v type="logical" >  T  T  T </v>
   <v type="logical" >  T  T  T </v>
   <v type="logical" >  T  T  T </v>
   <v type="logical" >  T  T  T </v>
   <v type="logical" >  T  T  T </v>
   <v type="logical" >  T  T  T </v>
   <v type="logical" >  T  T  T </v>
   <v type="logical" >  T  T  T </v>
   <v type="logical" >  T  T  T </v>
   <v type="logical" >  T  T  T </v>
   <v type="logical" >  T  T  T </v>
   <v type="logical" >  T  T  T </v>
   <v type="logical" >  T  T  T </v>
   <v type="logical" >  T  T  T </v>
   <v type="logical" >  T  T  T </v>
   <v type="logical" >  T  T  T </v>
   <v type="logical" >  T  T  T </v>
   <v type="logical" >  T  T  T </v>
   <v type="logical" >  T  T  T </v>
   <v type="logical" >  T  T  T </v>
   <v type="logical" >  T  T  T </v>
   <v type="logical" >  T  T  T </v>
   <v type="logical" >  T  T  T </v>
   <v type="logical" >  T  T  T </v>
   <v type="logical" >  T  T  T </v>
   <v type="logical" >  T  T  T </v>
   <v type="logical" >  T  T  T </v>
   <v type="logical" >  T  T  T </v>
   <v type="logical" >  T  T  T </v>
   <v type="logical" >  T  T  T </v>
   <v type="logical" >  T  T  T </v>
   <v type="logical" >  T  T  T </v>
   <v type="logical" >  T  T  T </v>
   <v type="logical" >  T  T  T </v>
   <v type="logical" >  F  F  F </v>
   <v type="logical" >  F  F  F </v>
   <v type="logical" >  F  F  F </v>
   <v type="logical" >  F  F  F </v>
   <v type="logical" >  F  F  F </v>
   <v type="logical" >  F  F  F </v>
   <v type="logical" >  F  F  F </v>
   <v type="logical" >  F  F  F </v>
   <v type="logical" >  F  F  F </v>
   <v type="logical" >  F  F  F </v>
   <v type="logical" >  F  F  F </v>
   <v type="logical" >  F  F  F </v>
   <v type="logical" >  F  F  F </v>
   <v type="logical" >  F  F  F </v>
   <v type="logical" >  F  F  F </v>
   <v type="logical" >  F  F  F </v>
   <v type="logical" >  F  F  F </v>
   <v type="logical" >  F  F  F </v>
   <v type="logical" >  F  F  F </v>
   <v type="logical" >  F  F  F </v>
   <v type="logical" >  F  F  F </v>
   <v type="logical" >  F  F  F </v>
   <v type="logical" >  F  F  F </v>
   <v type="logical" >  F  F  F </v>
   <v type="logical" >  T  T  T </v>
   <v type="logical" >  T  T  T </v>
   <v type="logical" >  T  T  T </v>
   <v type="logical" >  T  T  T </v>
   <v type="logical" >  T  T  T </v>
   <v type="logical" >  T  T  T </v>
   <v type="logical" >  T  T  T </v>
   <v type="logical" >  T  T  T </v>
   <v type="logical" >  T  T  T </v>
   <v type="logical" >  T  T  T </v>
   <v type="logical" >  T  T  T </v>
   <v type="logical" >  T  T  T </v>
  </varray>
  <varray name="velocities" >
   <v>       0.00239968      -0.00076114      -0.00011482 </v>
   <v>       0.00097477      -0.00024067       0.00027323 </v>
   <v>      -0.00033920      -0.00107717      -0.00066158 </v>
   <v>       0.00269113       0.00231757       0.00050926 </v>
   <v>      -0.00206013      -0.00007898       0.00019798 </v>
   <v>       0.00016949       0.00157650       0.00013595 </v>
   <v>      -0.00114033      -0.00079420      -0.00042826 </v>
   <v>       0.00187219       0.00323447       0.00052916 </v>
   <v>      -0.00254210      -0.00079641       0.00015758 </v>
   <v>      -0.00407980      -0.00081447      -0.00027968 </v>
   <v>       0.00129903      -0.00128854      -0.00085563 </v>
   <v>      -0.00004211      -0.00575073      -0.00037984 </v>
   <v>       0.00468730       0.00161837       0.00007434 </v>
   <v>       0.00026993       0.00211340      -0.00036709 </v>
   <v>       0.00090252      -0.00276647       0.00021021 </v>
   <v>      -0.00235192       0.00201332      -0.00040954 </v>
   <v>      -0.00005916       0.00094488       0.00052855 </v>
   <v>      -0.00306703       0.00118758      -0.00014900 </v>
   <v>      -0.00244131       0.00035662      -0.00066640 </v>
   <v>       0.00036153      -0.00052431       0.00062052 </v>
   <v>      -0.00125637       0.00190772       0.00032200 </v>
   <v>      -0.00267642      -0.00061357       0.00071408 </v>
   <v>      -0.00177834       0.00075035      -0.00051665 </v>
   <v>      -0.00003353       0.00062094      -0.00104968 </v>
   <v>       0.00186282       0.00161207      -0.00013527 </v>
   <v>       0.00210438      -0.00038658      -0.00020134 </v>
   <v>      -0.00165583      -0.00083532       0.00052861 </v>
   <v>      -0.00187280      -0.00050313       0.00011775 </v>
   <v>       0.00347343      -0.00052728      -0.00022160 </v>
   <v>       0.00163246      -0.00231899       0.00026201 </v>
   <v>       0.00120323       0.00109045       0.00042204 </v>
   <v>      -0.00100868      -0.00203176       0.00028040 </v>
   <v>       0.00126353       0.00009909      -0.00073997 </v>
   <v>      -0.00200677      -0.00403004      -0.00030530 </v>
   <v>      -0.00230656      -0.00285666      -0.00014122 </v>
   <v>       0.00106355      -0.00137641       0.00007697 </v>
   <v>      -0.00259350       0.00224454       0.00104080 </v>
   <v>       0.00034610      -0.00159445      -0.00019346 </v>
   <v>      -0.00149199       0.00144962      -0.00048919 </v>
   <v>      -0.00105281       0.00122207       0.00009309 </v>
   <v>       0.00113739      -0.00201559       0.00029169 </v>
   <v>       0.00009061      -0.00067501       0.00041233 </v>
   <v>       0.00126938      -0.00357157       0.00102894 </v>
   <v>       0.00059231      -0.00095832       0.00047176 </v>
   <v>      -0.00053971      -0.00013888      -0.00011567 </v>
   <v>       0.00234927       0.00104544      -0.00037137 </v>
   <v>      -0.00127421      -0.00039150       0.00016430 </v>
   <v>      -0.00315482      -0.00166102      -0.00008152 </v>
   <v>      -0.00109974      -0.00001802      -0.00010245 </v>
   <v>      -0.00040253      -0.00013911       0.00003187 </v>
   <v>      -0.00024916      -0.00025402       0.00007947 </v>
   <v>       0.00029464       0.00002075      -0.00002101 </v>
   <v>      -0.00044787      -0.00004794      -0.00013868 </v>
   <v>      -0.00025000       0.00031145      -0.00008206 </v>
   <v>       0.00022052      -0.00028469      -0.00011767 </v>
   <v>      -0.00056798       0.00042912       0.00007017 </v>
   <v>      -0.00042012       0.00015660      -0.00008227 </v>
   <v>      -0.00003465       0.00035378      -0.00021473 </v>
   <v>       0.00119411      -0.00027829       0.00001008 </v>
   <v>      -0.00012481      -0.00051232       0.00012613 </v>
   <v>      -0.00031152      -0.00049389      -0.00000427 </v>
   <v>      -0.00007816      -0.00020836       0.00000506 </v>
   <v>       0.00142171      -0.00119752       0.00011104 </v>
   <v>       0.00033824       0.00030005      -0.00007998 </v>
   <v>       0.00024883       0.00009584       0.00001249 </v>
   <v>       0.00015195       0.00004465       0.00011793 </v>
   <v>       0.00008688       0.00050719       0.00012914 </v>
   <v>      -0.00006380      -0.00029316       0.00009884 </v>
   <v>      -0.00053903      -0.00034355      -0.00016328 </v>
   <v>      -0.00044706      -0.00029113       0.00010983 </v>
   <v>       0.00071830       0.00006480      -0.00000940 </v>
   <v>       0.00078999       0.00069089      -0.00007095 </v>
   <v>       0.00000000       0.00000000       0.00000000 </v>
   <v>       0.00000000       0.00000000       0.00000000 </v>
   <v>       0.00000000       0.00000000       0.00000000 </v>
   <v>       0.00000000       0.00000000       0.00000000 </v>
   <v>       0.00000000       0.00000000       0.00000000 </v>
   <v>       0.00000000       0.00000000       0.00000000 </v>
   <v>       0.00000000       0.00000000       0.00000000 </v>
   <v>       0.00000000       0.00000000       0.00000000 </v>
   <v>       0.00000000       0.00000000       0.00000000 </v>
   <v>       0.00000000       0.00000000       0.00000000 </v>
   <v>       0.00000000       0.00000000       0.00000000 </v>
   <v>       0.00000000       0.00000000       0.00000000 </v>
   <v>       0.00000000       0.00000000       0.00000000 </v>
   <v>       0.00000000       0.00000000       0.00000000 </v>
   <v>       0.00000000       0.00000000       0.00000000 </v>
   <v>       0.00000000       0.00000000       0.00000000 </v>
   <v>       0.00000000       0.00000000       0.00000000 </v>
   <v>       0.00000000       0.00000000       0.00000000 </v>
   <v>       0.00000000       0.00000000       0.00000000 </v>
   <v>       0.00000000       0.00000000       0.00000000 </v>
   <v>       0.00000000       0.00000000       0.00000000 </v>
   <v>       0.00000000       0.00000000       0.00000000 </v>
   <v>       0.00000000       0.00000000       0.00000000 </v>
   <v>       0.00000000       0.00000000       0.00000000 </v>
   <v>      -0.00016385      -0.00000475       0.00002617 </v>
   <v>       0.00010762       0.00013161      -0.00003963 </v>
   <v>      -0.00026608      -0.00003377       0.00004706 </v>
   <v>       0.00011639      -0.00009012      -0.00001803 </v>
   <v>      -0.00007018       0.00009365      -0.00002538 </v>
   <v>      -0.00003969       0.00012984      -0.00004361 </v>
   <v>       0.00029614      -0.00005808      -0.00002613 </v>
   <v>      -0.00002040      -0.00017920      -0.00000282 </v>
   <v>      -0.00024296       0.00014235      -0.00000052 </v>
   <v>       0.00015942       0.00011331      -0.00000538 </v>
   <v>      -0.00012944       0.00014242       0.00000019 </v>
   <v>      -0.00017408       0.00020588       0.00003717 </v>
  </varray>
  <nose>
   <v>       0.07314819       0.00000000     300.00000000     300.00000000 </v>
  </nose>
 </structure>
 <calculation>
  <scstep>
   <time name="dav">   17.72   17.75</time>
   <time name="total">   17.84   17.87</time>
   <dipole>
    <v name="dipole">      0.00000000       0.00000000      -0.00007404 </v>
    <i name="Tr[quadrupol]">  -7483.46467057 </i>
    <i name="Echarged">      0.00000000 </i>
    <i name="Edipol_quadrupol">      0.00000000 </i>
    <i name="Eion">      0.00000000 </i>
   </dipole>
   <energy>
    <i name="alphaZ">    863.57833122 </i>
    <i name="ewald"> 223617.10055899 </i>
    <i name="hartreedc">-260359.54409963 </i>
    <i name="XCdc">    881.40387426 </i>
    <i name="pawpsdc">  33505.36643195 </i>
    <i name="pawaedc"> -32489.60540758 </i>
    <i name="eentropy">     -0.13542081 </i>
    <i name="bandstr">    536.96780619 </i>
    <i name="atom">  37193.95212048 </i>
    <i name="e_fr_energy">   3749.08419508 </i>
    <i name="e_wo_entrp">   3749.21961589 </i>
    <i name="e_0_energy">   3749.15190548 </i>
   </energy>
  </scstep>
  <scstep>
   <time name="dav">   20.51   20.51</time>
   <time name="total">   20.52   20.52</time>
   <dipole>
    <v name="dipole">      0.00000000       0.00000000      -0.00007404 </v>
    <i name="Tr[quadrupol]">  -7483.46467057 </i>
    <i name="Echarged">      0.00000000 </i>
    <i name="Edipol_quadrupol">      0.00000000 </i>
    <i name="Eion">      0.00000000 </i>
   </dipole>
   <energy>
    <i name="e_fr_energy">   -141.68558359 </i>
    <i name="e_wo_entrp">   -141.48496694 </i>
    <i name="e_0_energy">   -141.58527527 </i>
   </energy>
  </scstep>
  <scstep>
   <time name="dav">   18.89   18.90</time>
   <time name="total">   18.89   18.91</time>
   <dipole>
    <v name="dipole">      0.00000000       0.00000000      -0.00007404 </v>
    <i name="Tr[quadrupol]">  -7483.46467057 </i>
    <i name="Echarged">      0.00000000 </i>
    <i name="Edipol_quadrupol">      0.00000000 </i>
    <i name="Eion">      0.00000000 </i>
   </dipole>
   <energy>
    <i name="e_fr_energy">   -560.72167057 </i>
    <i name="e_wo_entrp">   -560.45269607 </i>
    <i name="e_0_energy">   -560.58718332 </i>
   </energy>
  </scstep>
  <scstep>
   <time name="dav">   20.37   20.41</time>
   <time name="total">   20.38   20.42</time>
   <dipole>
    <v name="dipole">      0.00000000       0.00000000      -0.00007404 </v>
    <i name="Tr[quadrupol]">  -7483.46467057 </i>
    <i name="Echarged">      0.00000000 </i>
    <i name="Edipol_quadrupol">      0.00000000 </i>
    <i name="Eion">      0.00000000 </i>
   </dipole>
   <energy>
    <i name="e_fr_energy">   -574.86516830 </i>
    <i name="e_wo_entrp">   -574.59137709 </i>
    <i name="e_0_energy">   -574.72827270 </i>
   </energy>
  </scstep>
  <scstep>
   <time name="dav">   21.81   21.83</time>
   <time name="total">   22.62   22.63</time>
   <dipole>
    <v name="dipole">      0.00000000       0.00000000      -0.00007404 </v>
    <i name="Tr[quadrupol]">  -7483.46467057 </i>
    <i name="Echarged">      0.00000000 </i>
    <i name="Edipol_quadrupol">      0.00000000 </i>
    <i name="Eion">      0.00000000 </i>
   </dipole>
   <energy>
    <i name="e_fr_energy">   -575.25730652 </i>
    <i name="e_wo_entrp">   -574.98328287 </i>
    <i name="e_0_energy">   -575.12029470 </i>
   </energy>
  </scstep>
  <scstep>
   <time name="diag">    2.64    2.64</time>
   <time name="diis">    8.53    8.54</time>
   <time name="orth">    0.72    0.72</time>
   <time name="total">   12.77   12.78</time>
   <dipole>
    <v name="dipole">      0.00000000       0.00000000       0.35635485 </v>
    <i name="Tr[quadrupol]">  -7484.74272307 </i>
    <i name="Echarged">      0.00000000 </i>
    <i name="Edipol_quadrupol">      0.00000000 </i>
    <i name="Eion">      0.00000000 </i>
   </dipole>
   <energy>
    <i name="e_fr_energy">   -533.19440701 </i>
    <i name="e_wo_entrp">   -532.77545215 </i>
    <i name="e_0_energy">   -532.98492958 </i>
   </energy>
  </scstep>
  <scstep>
   <time name="diag">    2.72    2.72</time>
   <time name="diis">    8.41    8.41</time>
   <time name="orth">    0.71    0.71</time>
   <time name="total">   12.72   12.72</time>
   <dipole>
    <v name="dipole">      0.00000000       0.00000000      -2.62099862 </v>
    <i name="Tr[quadrupol]">  -7462.14744234 </i>
    <i name="Echarged">      0.00000000 </i>
    <i name="Edipol_quadrupol">      0.00000000 </i>
    <i name="Eion">      0.00000000 </i>
   </dipole>
   <energy>
    <i name="e_fr_energy">   -605.28346124 </i>
    <i name="e_wo_entrp">   -605.05401955 </i>
    <i name="e_0_energy">   -605.16874039 </i>
   </energy>
  </scstep>
  <scstep>
   <time name="diag">    2.74    2.74</time>
   <time name="diis">    7.66    7.66</time>
   <time name="orth">    0.70    0.70</time>
   <time name="total">   11.78   11.79</time>
   <dipole>
    <v name="dipole">      0.00000000       0.00000000       2.55837585 </v>
    <i name="Tr[quadrupol]">  -7499.45448492 </i>
    <i name="Echarged">      0.00000000 </i>
    <i name="Edipol_quadrupol">      0.00000000 </i>
    <i name="Eion">      0.00000000 </i>
   </dipole>
   <energy>
    <i name="e_fr_energy">   -577.80975970 </i>
    <i name="e_wo_entrp">   -577.59993964 </i>
    <i name="e_0_energy">   -577.70484967 </i>
   </energy>
  </scstep>
  <scstep>
   <time name="diag">    2.36    2.36</time>
   <time name="diis">    7.00    7.00</time>
   <time name="orth">    0.75    0.75</time>
   <time name="total">   10.77   10.78</time>
   <dipole>
    <v name="dipole">      0.00000000       0.00000000      -0.75090518 </v>
    <i name="Tr[quadrupol]">  -7492.84786131 </i>
    <i name="Echarged">      0.00000000 </i>
    <i name="Edipol_quadrupol">      0.00000000 </i>
    <i name="Eion">      0.00000000 </i>
   </dipole>
   <energy>
    <i name="e_fr_energy">   -537.36557856 </i>
    <i name="e_wo_entrp">   -537.03051213 </i>
    <i name="e_0_energy">   -537.19804535 </i>
   </energy>
  </scstep>
  <scstep>
   <time name="diag">    2.49    2.49</time>
   <time name="diis">    7.96    7.96</time>
   <time name="orth">    0.75    0.75</time>
   <time name="total">   12.06   12.06</time>
   <dipole>
    <v name="dipole">      0.00000000       0.00000000       1.14198687 </v>
    <i name="Tr[quadrupol]">  -7482.14396096 </i>
    <i name="Echarged">      0.00000000 </i>
    <i name="Edipol_quadrupol">      0.00000000 </i>
    <i name="Eion">      0.00000000 </i>
   </dipole>
   <energy>
    <i name="e_fr_energy">   -547.51427625 </i>
    <i name="e_wo_entrp">   -547.35223153 </i>
    <i name="e_0_energy">   -547.43325389 </i>
   </energy>
  </scstep>
  <scstep>
   <time name="diag">    2.62    2.62</time>
   <time name="diis">    8.07    8.07</time>
   <time name="orth">    0.77    0.77</time>
   <time name="total">   12.26   12.27</time>
   <dipole>
    <v name="dipole">      0.00000000       0.00000000      -1.13319174 </v>
    <i name="Tr[quadrupol]">  -7489.13457960 </i>
    <i name="Echarged">      0.00000000 </i>
    <i name="Edipol_quadrupol">      0.00000000 </i>
    <i name="Eion">      0.00000000 </i>
   </dipole>
   <energy>
    <i name="e_fr_energy">   -540.54432763 </i>
    <i name="e_wo_entrp">   -540.18393031 </i>
    <i name="e_0_energy">   -540.36412897 </i>
   </energy>
  </scstep>
  <scstep>
   <time name="diag">    2.59    2.59</time>
   <time name="diis">    7.25    7.25</time>
   <time name="orth">    0.75    0.75</time>
   <time name="total">   11.44   11.44</time>
   <dipole>
    <v name="dipole">      0.00000000       0.00000000      -0.86564707 </v>
    <i name="Tr[quadrupol]">  -7489.76979254 </i>
    <i name="Echarged">      0.00000000 </i>
    <i name="Edipol_quadrupol">      0.00000000 </i>
    <i name="Eion">      0.00000000 </i>
   </dipole>
   <energy>
    <i name="e_fr_energy">   -532.87882164 </i>
    <i name="e_wo_entrp">   -532.41599129 </i>
    <i name="e_0_energy">   -532.64740647 </i>
   </energy>
  </scstep>
  <scstep>
   <time name="diag">    2.54    2.54</time>
   <time name="diis">    7.14    7.14</time>
   <time name="orth">    0.75    0.75</time>
   <time name="total">   11.10   11.10</time>
   <dipole>
    <v name="dipole">      0.00000000       0.00000000      -0.95653560 </v>
    <i name="Tr[quadrupol]">  -7492.23419636 </i>
    <i name="Echarged">      0.00000000 </i>
    <i name="Edipol_quadrupol">      0.00000000 </i>
    <i name="Eion">      0.00000000 </i>
   </dipole>
   <energy>
    <i name="e_fr_energy">   -529.53486401 </i>
    <i name="e_wo_entrp">   -529.16897273 </i>
    <i name="e_0_energy">   -529.35191837 </i>
   </energy>
  </scstep>
  <scstep>
   <time name="diag">    2.36    2.36</time>
   <time name="diis">    7.81    7.81</time>
   <time name="orth">    0.76    0.76</time>
   <time name="total">   11.59   11.59</time>
   <dipole>
    <v name="dipole">      0.00000000       0.00000000      -1.11375572 </v>
    <i name="Tr[quadrupol]">  -7491.28128505 </i>
    <i name="Echarged">      0.00000000 </i>
    <i name="Edipol_quadrupol">      0.00000000 </i>
    <i name="Eion">      0.00000000 </i>
   </dipole>
   <energy>
    <i name="e_fr_energy">   -528.72923848 </i>
    <i name="e_wo_entrp">   -528.37799439 </i>
    <i name="e_0_energy">   -528.55361643 </i>
   </energy>
  </scstep>
  <scstep>
   <time name="diag">    2.76    2.76</time>
   <time name="diis">    7.98    7.98</time>
   <time name="orth">    0.72    0.72</time>
   <time name="total">   12.32   12.32</time>
   <dipole>
    <v name="dipole">      0.00000000       0.00000000      -1.11267416 </v>
    <i name="Tr[quadrupol]">  -7491.26569327 </i>
    <i name="Echarged">      0.00000000 </i>
    <i name="Edipol_quadrupol">      0.00000000 </i>
    <i name="Eion">      0.00000000 </i>
   </dipole>
   <energy>
    <i name="e_fr_energy">   -528.54590069 </i>
    <i name="e_wo_entrp">   -528.19317625 </i>
    <i name="e_0_energy">   -528.36953847 </i>
   </energy>
  </scstep>
  <scstep>
   <time name="diag">    2.40    2.40</time>
   <time name="diis">    7.45    7.45</time>
   <time name="orth">    0.75    0.75</time>
   <time name="total">   11.46   11.46</time>
   <dipole>
    <v name="dipole">      0.00000000       0.00000000      -1.09968004 </v>
    <i name="Tr[quadrupol]">  -7491.40498733 </i>
    <i name="Echarged">      0.00000000 </i>
    <i name="Edipol_quadrupol">      0.00000000 </i>
    <i name="Eion">      0.00000000 </i>
   </dipole>
   <energy>
    <i name="e_fr_energy">   -528.51172786 </i>
    <i name="e_wo_entrp">   -528.15406371 </i>
    <i name="e_0_energy">   -528.33289579 </i>
   </energy>
  </scstep>
  <scstep>
   <time name="diag">    2.39    2.39</time>
   <time name="diis">    7.23    7.23</time>
   <time name="orth">    0.70    0.70</time>
   <time name="total">   10.99   10.99</time>
   <dipole>
    <v name="dipole">      0.00000000       0.00000000      -1.10185625 </v>
    <i name="Tr[quadrupol]">  -7491.44626954 </i>
    <i name="Echarged">      0.00000000 </i>
    <i name="Edipol_quadrupol">      0.00000000 </i>
    <i name="Eion">      0.00000000 </i>
   </dipole>
   <energy>
    <i name="e_fr_energy">   -528.43889918 </i>
    <i name="e_wo_entrp">   -528.06937490 </i>
    <i name="e_0_energy">   -528.25413704 </i>
   </energy>
  </scstep>
  <scstep>
   <time name="diag">    2.30    2.30</time>
   <time name="diis">    7.16    7.16</time>
   <time name="orth">    0.74    0.74</time>
   <time name="total">   10.87   10.87</time>
   <dipole>
    <v name="dipole">      0.00000000       0.00000000      -1.11621800 </v>
    <i name="Tr[quadrupol]">  -7491.78524204 </i>
    <i name="Echarged">      0.00000000 </i>
    <i name="Edipol_quadrupol">      0.00000000 </i>
    <i name="Eion">      0.00000000 </i>
   </dipole>
   <energy>
    <i name="e_fr_energy">   -528.41114985 </i>
    <i name="e_wo_entrp">   -528.01711269 </i>
    <i name="e_0_energy">   -528.21413127 </i>
   </energy>
  </scstep>
  <scstep>
   <time name="diag">    2.63    2.63</time>
   <time name="diis">    8.29    8.29</time>
   <time name="orth">    0.78    0.78</time>
   <time name="total">   12.61   12.61</time>
   <dipole>
    <v name="dipole">      0.00000000       0.00000000      -1.12988849 </v>
    <i name="Tr[quadrupol]">  -7491.80907506 </i>
    <i name="Echarged">      0.00000000 </i>
    <i name="Edipol_quadrupol">      0.00000000 </i>
    <i name="Eion">      0.00000000 </i>
   </dipole>
   <energy>
    <i name="e_fr_energy">   -528.32782650 </i>
    <i name="e_wo_entrp">   -527.93138059 </i>
    <i name="e_0_energy">   -528.12960355 </i>
   </energy>
  </scstep>
  <scstep>
   <time name="diag">    2.39    2.39</time>
   <time name="diis">    8.08    8.08</time>
   <time name="orth">    0.74    0.74</time>
   <time name="total">   12.05   12.06</time>
   <dipole>
    <v name="dipole">      0.00000000       0.00000000      -1.13858993 </v>
    <i name="Tr[quadrupol]">  -7491.62051728 </i>
    <i name="Echarged">      0.00000000 </i>
    <i name="Edipol_quadrupol">      0.00000000 </i>
    <i name="Eion">      0.00000000 </i>
   </dipole>
   <energy>
    <i name="e_fr_energy">   -528.28393414 </i>
    <i name="e_wo_entrp">   -527.88840999 </i>
    <i name="e_0_energy">   -528.08617206 </i>
   </energy>
  </scstep>
  <scstep>
   <time name="diag">    2.55    2.55</time>
   <time name="diis">    7.77    7.77</time>
   <time name="orth">    0.75    0.75</time>
   <time name="total">   11.86   11.86</time>
   <dipole>
    <v name="dipole">      0.00000000       0.00000000      -1.13420908 </v>
    <i name="Tr[quadrupol]">  -7491.67538540 </i>
    <i name="Echarged">      0.00000000 </i>
    <i name="Edipol_quadrupol">      0.00000000 </i>
    <i name="Eion">      0.00000000 </i>
   </dipole>
   <energy>
    <i name="e_fr_energy">   -528.27541258 </i>
    <i name="e_wo_entrp">   -527.87945505 </i>
    <i name="e_0_energy">   -528.07743382 </i>
   </energy>
  </scstep>
  <scstep>
   <time name="diag">    2.60    2.60</time>
   <time name="diis">    7.61    7.61</time>
   <time name="orth">    0.79    0.79</time>
   <time name="total">   11.78   11.78</time>
   <dipole>
    <v name="dipole">      0.00000000       0.00000000      -1.11669753 </v>
    <i name="Tr[quadrupol]">  -7491.76721427 </i>
    <i name="Echarged">      0.00000000 </i>
    <i name="Edipol_quadrupol">      0.00000000 </i>
    <i name="Eion">      0.00000000 </i>
   </dipole>
   <energy>
    <i name="e_fr_energy">   -528.25893773 </i>
    <i name="e_wo_entrp">   -527.85988242 </i>
    <i name="e_0_energy">   -528.05941007 </i>
   </energy>
  </scstep>
  <scstep>
   <time name="diag">    2.70    2.70</time>
   <time name="diis">    8.05    8.05</time>
   <time name="orth">    0.71    0.71</time>
   <time name="total">   12.22   12.22</time>
   <dipole>
    <v name="dipole">      0.00000000       0.00000000      -1.10021956 </v>
    <i name="Tr[quadrupol]">  -7491.78613068 </i>
    <i name="Echarged">      0.00000000 </i>
    <i name="Edipol_quadrupol">      0.00000000 </i>
    <i name="Eion">      0.00000000 </i>
   </dipole>
   <energy>
    <i name="e_fr_energy">   -528.24833193 </i>
    <i name="e_wo_entrp">   -527.85121977 </i>
    <i name="e_0_energy">   -528.04977585 </i>
   </energy>
  </scstep>
  <scstep>
   <time name="diag">    2.31    2.31</time>
   <time name="diis">    7.09    7.09</time>
   <time name="orth">    0.73    0.73</time>
   <time name="total">   10.80   10.80</time>
   <dipole>
    <v name="dipole">      0.00000000       0.00000000      -1.07638726 </v>
    <i name="Tr[quadrupol]">  -7491.73975156 </i>
    <i name="Echarged">      0.00000000 </i>
    <i name="Edipol_quadrupol">      0.00000000 </i>
    <i name="Eion">      0.00000000 </i>
   </dipole>
   <energy>
    <i name="e_fr_energy">   -528.23858101 </i>
    <i name="e_wo_entrp">   -527.84406639 </i>
    <i name="e_0_energy">   -528.04132370 </i>
   </energy>
  </scstep>
  <scstep>
   <time name="diag">    2.26    2.26</time>
   <time name="diis">    7.13    7.13</time>
   <time name="orth">    0.71    0.71</time>
   <time name="total">   10.96   10.96</time>
   <dipole>
    <v name="dipole">      0.00000000       0.00000000      -1.05883293 </v>
    <i name="Tr[quadrupol]">  -7491.68938287 </i>
    <i name="Echarged">      0.00000000 </i>
    <i name="Edipol_quadrupol">      0.00000000 </i>
    <i name="Eion">      0.00000000 </i>
   </dipole>
   <energy>
    <i name="e_fr_energy">   -528.23176905 </i>
    <i name="e_wo_entrp">   -527.83765328 </i>
    <i name="e_0_energy">   -528.03471117 </i>
   </energy>
  </scstep>
  <scstep>
   <time name="diag">    2.42    2.42</time>
   <time name="diis">    7.40    7.40</time>
   <time name="orth">    0.74    0.74</time>
   <time name="total">   11.23   11.23</time>
   <dipole>
    <v name="dipole">      0.00000000       0.00000000      -1.03465706 </v>
    <i name="Tr[quadrupol]">  -7491.66671911 </i>
    <i name="Echarged">      0.00000000 </i>
    <i name="Edipol_quadrupol">      0.00000000 </i>
    <i name="Eion">      0.00000000 </i>
   </dipole>
   <energy>
    <i name="e_fr_energy">   -528.22375787 </i>
    <i name="e_wo_entrp">   -527.82901202 </i>
    <i name="e_0_energy">   -528.02638495 </i>
   </energy>
  </scstep>
  <scstep>
   <time name="diag">    2.34    2.34</time>
   <time name="diis">    7.25    7.25</time>
   <time name="orth">    0.71    0.71</time>
   <time name="total">   10.95   10.95</time>
   <dipole>
    <v name="dipole">      0.00000000       0.00000000      -1.01721492 </v>
    <i name="Tr[quadrupol]">  -7491.64977511 </i>
    <i name="Echarged">      0.00000000 </i>
    <i name="Edipol_quadrupol">      0.00000000 </i>
    <i name="Eion">      0.00000000 </i>
   </dipole>
   <energy>
    <i name="e_fr_energy">   -528.21818748 </i>
    <i name="e_wo_entrp">   -527.82262238 </i>
    <i name="e_0_energy">   -528.02040493 </i>
   </energy>
  </scstep>
  <scstep>
   <time name="diag">    2.56    2.56</time>
   <time name="diis">    7.58    7.58</time>
   <time name="orth">    0.72    0.72</time>
   <time name="total">   11.55   11.55</time>
   <dipole>
    <v name="dipole">      0.00000000       0.00000000      -0.97602021 </v>
    <i name="Tr[quadrupol]">  -7491.61588415 </i>
    <i name="Echarged">      0.00000000 </i>
    <i name="Edipol_quadrupol">      0.00000000 </i>
    <i name="Eion">      0.00000000 </i>
   </dipole>
   <energy>
    <i name="e_fr_energy">   -528.20743835 </i>
    <i name="e_wo_entrp">   -527.81184121 </i>
    <i name="e_0_energy">   -528.00963978 </i>
   </energy>
  </scstep>
  <scstep>
   <time name="diag">    2.67    2.67</time>
   <time name="diis">    8.39    8.40</time>
   <time name="orth">    0.75    0.75</time>
   <time name="total">   12.64   12.64</time>
   <dipole>
    <v name="dipole">      0.00000000       0.00000000      -0.91817276 </v>
    <i name="Tr[quadrupol]">  -7491.55661352 </i>
    <i name="Echarged">      0.00000000 </i>
    <i name="Edipol_quadrupol">      0.00000000 </i>
    <i name="Eion">      0.00000000 </i>
   </dipole>
   <energy>
    <i name="e_fr_energy">   -528.19460853 </i>
    <i name="e_wo_entrp">   -527.79880381 </i>
    <i name="e_0_energy">   -527.99670617 </i>
   </energy>
  </scstep>
  <scstep>
   <time name="diag">    2.59    2.59</time>
   <time name="diis">    8.54    8.54</time>
   <time name="orth">    0.74    0.74</time>
   <time name="total">   12.75   12.75</time>
   <dipole>
    <v name="dipole">      0.00000000       0.00000000      -0.88800098 </v>
    <i name="Tr[quadrupol]">  -7491.50496518 </i>
    <i name="Echarged">      0.00000000 </i>
    <i name="Edipol_quadrupol">      0.00000000 </i>
    <i name="Eion">      0.00000000 </i>
   </dipole>
   <energy>
    <i name="e_fr_energy">   -528.18892152 </i>
    <i name="e_wo_entrp">   -527.79274102 </i>
    <i name="e_0_energy">   -527.99083127 </i>
   </energy>
  </scstep>
  <scstep>
   <time name="diag">    2.54    2.54</time>
   <time name="diis">    7.74    7.75</time>
   <time name="orth">    0.73    0.73</time>
   <time name="total">   11.88   11.88</time>
   <dipole>
    <v name="dipole">      0.00000000       0.00000000      -0.84660137 </v>
    <i name="Tr[quadrupol]">  -7491.43367167 </i>
    <i name="Echarged">      0.00000000 </i>
    <i name="Edipol_quadrupol">      0.00000000 </i>
    <i name="Eion">      0.00000000 </i>
   </dipole>
   <energy>
    <i name="e_fr_energy">   -528.18203373 </i>
    <i name="e_wo_entrp">   -527.78529479 </i>
    <i name="e_0_energy">   -527.98366426 </i>
   </energy>
  </scstep>
  <scstep>
   <time name="diag">    2.67    2.67</time>
   <time name="diis">    8.06    8.06</time>
   <time name="orth">    0.78    0.78</time>
   <time name="total">   12.33   12.33</time>
   <dipole>
    <v name="dipole">      0.00000000       0.00000000      -0.79471308 </v>
    <i name="Tr[quadrupol]">  -7491.34920838 </i>
    <i name="Echarged">      0.00000000 </i>
    <i name="Edipol_quadrupol">      0.00000000 </i>
    <i name="Eion">      0.00000000 </i>
   </dipole>
   <energy>
    <i name="e_fr_energy">   -528.17480409 </i>
    <i name="e_wo_entrp">   -527.77779079 </i>
    <i name="e_0_energy">   -527.97629744 </i>
   </energy>
  </scstep>
  <scstep>
   <time name="diag">    2.66    2.66</time>
   <time name="diis">    8.42    8.42</time>
   <time name="orth">    0.71    0.71</time>
   <time name="total">   12.66   12.67</time>
   <dipole>
    <v name="dipole">      0.00000000       0.00000000      -0.74029094 </v>
    <i name="Tr[quadrupol]">  -7491.23913296 </i>
    <i name="Echarged">      0.00000000 </i>
    <i name="Edipol_quadrupol">      0.00000000 </i>
    <i name="Eion">      0.00000000 </i>
   </dipole>
   <energy>
    <i name="e_fr_energy">   -528.16886531 </i>
    <i name="e_wo_entrp">   -527.77171470 </i>
    <i name="e_0_energy">   -527.97029000 </i>
   </energy>
  </scstep>
  <scstep>
   <time name="diag">    2.54    2.54</time>
   <time name="diis">    8.34    8.34</time>
   <time name="orth">    0.72    0.72</time>
   <time name="total">   12.47   12.48</time>
   <dipole>
    <v name="dipole">      0.00000000       0.00000000      -0.70381906 </v>
    <i name="Tr[quadrupol]">  -7491.13691740 </i>
    <i name="Echarged">      0.00000000 </i>
    <i name="Edipol_quadrupol">      0.00000000 </i>
    <i name="Eion">      0.00000000 </i>
   </dipole>
   <energy>
    <i name="e_fr_energy">   -528.16608702 </i>
    <i name="e_wo_entrp">   -527.76885570 </i>
    <i name="e_0_energy">   -527.96747136 </i>
   </energy>
  </scstep>
  <scstep>
   <time name="diag">    2.62    2.62</time>
   <time name="diis">    8.77    8.77</time>
   <time name="orth">    0.74    0.74</time>
   <time name="total">   13.02   13.03</time>
   <dipole>
    <v name="dipole">      0.00000000       0.00000000      -0.67934253 </v>
    <i name="Tr[quadrupol]">  -7491.06887660 </i>
    <i name="Echarged">      0.00000000 </i>
    <i name="Edipol_quadrupol">      0.00000000 </i>
    <i name="Eion">      0.00000000 </i>
   </dipole>
   <energy>
    <i name="e_fr_energy">   -528.16460712 </i>
    <i name="e_wo_entrp">   -527.76729697 </i>
    <i name="e_0_energy">   -527.96595205 </i>
   </energy>
  </scstep>
  <scstep>
   <time name="diag">    2.63    2.63</time>
   <time name="diis">    8.49    8.49</time>
   <time name="orth">    0.73    0.73</time>
   <time name="total">   12.72   12.72</time>
   <dipole>
    <v name="dipole">      0.00000000       0.00000000      -0.65175220 </v>
    <i name="Tr[quadrupol]">  -7490.98864743 </i>
    <i name="Echarged">      0.00000000 </i>
    <i name="Edipol_quadrupol">      0.00000000 </i>
    <i name="Eion">      0.00000000 </i>
   </dipole>
   <energy>
    <i name="e_fr_energy">   -528.16330151 </i>
    <i name="e_wo_entrp">   -527.76594615 </i>
    <i name="e_0_energy">   -527.96462383 </i>
   </energy>
  </scstep>
  <scstep>
   <time name="diag">    2.68    2.68</time>
   <time name="diis">    8.44    8.45</time>
   <time name="orth">    0.73    0.73</time>
   <time name="total">   12.74   12.75</time>
   <dipole>
    <v name="dipole">      0.00000000       0.00000000      -0.62073137 </v>
    <i name="Tr[quadrupol]">  -7490.87915732 </i>
    <i name="Echarged">      0.00000000 </i>
    <i name="Edipol_quadrupol">      0.00000000 </i>
    <i name="Eion">      0.00000000 </i>
   </dipole>
   <energy>
    <i name="e_fr_energy">   -528.16241192 </i>
    <i name="e_wo_entrp">   -527.76506322 </i>
    <i name="e_0_energy">   -527.96373757 </i>
   </energy>
  </scstep>
  <scstep>
   <time name="diag">    2.67    2.67</time>
   <time name="diis">    8.65    8.65</time>
   <time name="orth">    0.74    0.74</time>
   <time name="total">   12.95   12.95</time>
   <dipole>
    <v name="dipole">      0.00000000       0.00000000      -0.59782097 </v>
    <i name="Tr[quadrupol]">  -7490.75945067 </i>
    <i name="Echarged">      0.00000000 </i>
    <i name="Edipol_quadrupol">      0.00000000 </i>
    <i name="Eion">      0.00000000 </i>
   </dipole>
   <energy>
    <i name="e_fr_energy">   -528.16216532 </i>
    <i name="e_wo_entrp">   -527.76476087 </i>
    <i name="e_0_energy">   -527.96346309 </i>
   </energy>
  </scstep>
  <scstep>
   <time name="diag">    2.64    2.64</time>
   <time name="diis">    9.46    9.46</time>
   <time name="orth">    0.76    0.76</time>
   <time name="total">   12.97   12.97</time>
   <dipole>
    <v name="dipole">      0.00000000       0.00000000      -0.59301623 </v>
    <i name="Tr[quadrupol]">  -7490.72529514 </i>
    <i name="Echarged">      0.00000000 </i>
    <i name="Edipol_quadrupol">      0.00000000 </i>
    <i name="Eion">      0.00000000 </i>
   </dipole>
   <energy>
    <i name="alphaZ">    794.26049809 </i>
    <i name="ewald"> 223617.10055899 </i>
    <i name="hartreedc">-260755.87218801 </i>
    <i name="XCdc">    909.29465431 </i>
    <i name="pawpsdc">  45346.31843788 </i>
    <i name="pawaedc"> -44431.22114540 </i>
    <i name="eentropy">     -0.39740503 </i>
    <i name="bandstr">  -3201.59770064 </i>
    <i name="atom">  37193.95212048 </i>
    <i name="e_fr_energy">   -528.16216932 </i>
    <i name="e_wo_entrp">   -527.76476429 </i>
    <i name="e_0_energy">   -527.96346680 </i>
   </energy>
  </scstep>
  <structure>
   <crystal>
    <varray name="basis" >
     <v>       8.34588864       0.00000000       0.00000000 </v>
     <v>       0.00000000       9.63700211       0.00000000 </v>
     <v>       0.00000000       0.00000000      32.54292636 </v>
    </varray>
    <i name="volume">   2617.40629856 </i>
    <varray name="rec_basis" >
     <v>       0.11981948       0.00000000       0.00000000 </v>
     <v>       0.00000000       0.10376671       0.00000000 </v>
     <v>       0.00000000       0.00000000       0.03072864 </v>
    </varray>
   </crystal>
   <varray name="positions" >
    <v>       0.20590734       0.45722860       0.50795793 </v>
    <v>       0.21037265       0.48401963       0.46197192 </v>
    <v>       0.76857833       0.84949448       0.46587229 </v>
    <v>       0.78227971       0.67752846       0.47243747 </v>
    <v>       0.62417689       0.98179127       0.50982297 </v>
    <v>       0.60449073       0.04668596       0.46566488 </v>
    <v>       0.06600537       0.72440057       0.45747919 </v>
    <v>       0.21856545       0.80237740       0.45636958 </v>
    <v>       0.31714875       0.21928230       0.67413644 </v>
    <v>       0.40301924       0.08394357       0.67985220 </v>
    <v>       0.79088924       0.53772241       0.59319711 </v>
    <v>       0.76737512       0.69471331       0.59885522 </v>
    <v>       0.85501202       0.41343565       0.75689607 </v>
    <v>       0.75220916       0.35450433       0.72250680 </v>
    <v>       0.45832087       0.80384031       0.69648114 </v>
    <v>       0.60365392       0.90464084       0.70170442 </v>
    <v>       0.46284263       0.72361156       0.61700863 </v>
    <v>       0.24260799       0.13896865       0.56298819 </v>
    <v>       0.19950590       0.82240054       0.63787904 </v>
    <v>       0.15356309       0.93539525       0.67215158 </v>
    <v>       0.67380451       0.52596301       0.65776953 </v>
    <v>       0.56312791       0.39430876       0.66480952 </v>
    <v>       0.80221048       0.04820188       0.62767957 </v>
    <v>       0.63889770       0.10637010       0.64144210 </v>
    <v>       0.82304229       0.14492735       0.49703086 </v>
    <v>       0.96546041       0.18867389       0.46972734 </v>
    <v>       0.26537104       0.04596856       0.46536285 </v>
    <v>       0.28533895       0.99144544       0.50979052 </v>
    <v>       0.95129723       0.85462159       0.62318808 </v>
    <v>       0.97091144       0.91852747       0.58271538 </v>
    <v>       0.48702574       0.39290628       0.47439359 </v>
    <v>       0.60881997       0.28834956       0.45803307 </v>
[...]
       <r>     3.7363    18.2850   629.7414 </r>
       <r>     3.8368    12.6333   631.0113 </r>
       <r>     3.9373    11.0892   632.1261 </r>
       <r>     4.0378    15.3227   633.6664 </r>
       <r>     4.1384    25.2880   636.2085 </r>
       <r>     4.2389    24.6773   638.6892 </r>
       <r>     4.3394    23.5361   641.0552 </r>
       <r>     4.4399    28.9314   643.9635 </r>
       <r>     4.5405    29.9495   646.9742 </r>
       <r>     4.6410    22.2742   649.2133 </r>
       <r>     4.7415    17.3992   650.9624 </r>
       <r>     4.8420    21.3184   653.1054 </r>
       <r>     4.9426    25.1356   655.6322 </r>
       <r>     5.0431    21.7005   657.8137 </r>
       <r>     5.1436    18.3988   659.6632 </r>
       <r>     5.2441    14.4481   661.1156 </r>
       <r>     5.3447     7.4671   661.8662 </r>
       <r>     5.4452     1.2806   661.9950 </r>
       <r>     5.5457     0.0496   662.0000 </r>
       <r>     5.6462     0.0004   662.0000 </r>
       <r>     5.7468     0.0000   662.0000 </r>
       <r>     5.8473     0.0000   662.0000 </r>
       <r>     5.9478     0.0000   662.0000 </r>
       <r>     6.0483     0.0000   662.0000 </r>
       <r>     6.1489     0.0000   662.0000 </r>
       <r>     6.2494     0.0000   662.0000 </r>
       <r>     6.3499     0.0000   662.0000 </r>
       <r>     6.4504     0.0000   662.0000 </r>
       <r>     6.5510     0.0000   662.0000 </r>
       <r>     6.6515     0.0000   662.0000 </r>
      </set>
     </set>
    </array>
   </total>
  </dos>
 </calculation>
 <structure name="finalpos" >
  <crystal>
   <varray name="basis" >
    <v>       8.34588864       0.00000000       0.00000000 </v>
    <v>       0.00000000       9.63700211       0.00000000 </v>
    <v>       0.00000000       0.00000000      32.54292636 </v>
   </varray>
   <i name="volume">   2617.40629856 </i>
   <varray name="rec_basis" >
    <v>       0.11981948       0.00000000       0.00000000 </v>
    <v>       0.00000000       0.10376671       0.00000000 </v>
    <v>       0.00000000       0.00000000       0.03072864 </v>
   </varray>
  </crystal>
  <varray name="positions" >
   <v>       0.21304072       0.45473931       0.50846637 </v>
   <v>       0.21313953       0.48322638       0.46223750 </v>
   <v>       0.76800071       0.84395059       0.46389812 </v>
   <v>       0.79007906       0.68469112       0.47410776 </v>
   <v>       0.61933552       0.98255804       0.50891211 </v>
   <v>       0.60094013       0.05133927       0.46527834 </v>
   <v>       0.05664838       0.72157111       0.45643511 </v>
   <v>       0.22729339       0.81313392       0.45858715 </v>
   <v>       0.30995377       0.21739743       0.67377805 </v>
   <v>       0.39448449       0.07992920       0.67848112 </v>
   <v>       0.78763158       0.53723784       0.59189330 </v>
   <v>       0.77729185       0.69351013       0.59701401 </v>
   <v>       0.86920694       0.41458479       0.75671171 </v>
   <v>       0.75847196       0.35925057       0.72218012 </v>
   <v>       0.46249583       0.79736345       0.69600434 </v>
   <v>       0.59768818       0.91170549       0.70050119 </v>
   <v>       0.45781954       0.72681888       0.61809471 </v>
   <v>       0.23432551       0.14209239       0.56315336 </v>
   <v>       0.20113777       0.82338187       0.63484843 </v>
   <v>       0.15300227       0.93073762       0.67266949 </v>
   <v>       0.67142786       0.53306928       0.65708636 </v>
   <v>       0.55961679       0.39640487       0.66719781 </v>
   <v>       0.79583864       0.05070336       0.62617284 </v>
   <v>       0.63003694       0.10722019       0.63868816 </v>
   <v>       0.81755513       0.14457686       0.49575877 </v>
   <v>       0.97076448       0.18783654       0.46888216 </v>
   <v>       0.25950972       0.04432755       0.46650293 </v>
   <v>       0.27690745       0.98967208       0.51056637 </v>
   <v>       0.95647623       0.85344705       0.62195472 </v>
   <v>       0.97798737       0.91448103       0.58166585 </v>
   <v>       0.49219629       0.39173037       0.47655866 </v>
   <v>       0.60697833       0.28173623       0.45854343 </v>
   <v>       0.85799104       0.31473033       0.55504439 </v>
   <v>       0.85479962       0.26413980       0.60242627 </v>
   <v>       0.46042218       0.20984795       0.58486482 </v>
   <v>       0.47460863       0.27484346       0.54295919 </v>
   <v>       0.26592930       0.42601696       0.58859568 </v>
   <v>       0.09049688       0.44247483       0.58279942 </v>
   <v>       0.06417007       0.16268027       0.71145434 </v>
   <v>       0.94324955       0.13081662       0.67910248 </v>
   <v>       0.08650200       0.12460991       0.53763927 </v>
   <v>       0.32747525       0.67975753       0.58583665 </v>
   <v>       0.72577221       0.44177779       0.50478582 </v>
   <v>       0.72011999       0.56395148       0.53544921 </v>
   <v>       0.49351414       0.91173040       0.57385472 </v>
   <v>       0.67300859       0.97609502       0.57829188 </v>
   <v>       0.27805943       0.64673476       0.69434894 </v>
   <v>       0.44761443       0.57550908       0.69490640 </v>
   <v>       0.23732503       0.41305842       0.48205722 </v>
   <v>       0.82944579       0.76109403       0.45865413 </v>
   <v>       0.67677882       0.99416720       0.48256782 </v>
   <v>       0.17643603       0.71301921       0.44872599 </v>
   <v>       0.41221577       0.17200732       0.66485980 </v>
   <v>       0.71289476       0.61060449       0.60335576 </v>
   <v>       0.84129998       0.32656124       0.74132906 </v>
   <v>       0.51124913       0.88732275       0.68330687 </v>
   <v>       0.15492939       0.07277627       0.55636403 </v>
   <v>       0.12359361       0.84747316       0.65794073 </v>
   <v>       0.62031697       0.47320872       0.67858442 </v>
   <v>       0.74819780       0.12928821       0.63999565 </v>
   <v>       0.93199981       0.16886856       0.49759140 </v>
   <v>       0.29615489       0.96309924       0.48118050 </v>
   <v>       0.88804888       0.87257934       0.59780850 </v>
   <v>       0.57352959       0.32688353       0.48433762 </v>
   <v>       0.88119777       0.34760765       0.58351438 </v>
   <v>       0.41679770       0.28517072       0.56870608 </v>
   <v>       0.18984143       0.49810886       0.58136179 </v>
   <v>       0.05709588       0.12763679       0.68340728 </v>
   <v>       0.36297681       0.75704748       0.60297714 </v>
   <v>       0.77943994       0.53397673       0.51168999 </v>
   <v>       0.56025534       0.99214768       0.56725670 </v>
   <v>       0.38993735       0.65923642       0.70340099 </v>
   <v>       0.16666667       0.08333333       0.24123678 </v>
   <v>       0.50000000       0.08333333       0.24123678 </v>
   <v>       0.83333333       0.08333333       0.24123678 </v>
   <v>       0.00000000       0.33333333       0.24123678 </v>
   <v>       0.33333333       0.33333333       0.24123678 </v>
   <v>       0.66666667       0.33333333       0.24123678 </v>
   <v>       0.16666667       0.58333333       0.24123678 </v>
   <v>       0.50000000       0.58333333       0.24123678 </v>
   <v>       0.83333333       0.58333333       0.24123678 </v>
   <v>       0.00000000       0.83333333       0.24123678 </v>
   <v>       0.33333333       0.83333333       0.24123678 </v>
   <v>       0.66666667       0.83333333       0.24123678 </v>
   <v>       0.00000000       0.16666667       0.31103576 </v>
   <v>       0.33333333       0.16666667       0.31103576 </v>
   <v>       0.66666667       0.16666667       0.31103576 </v>
   <v>       0.16666667       0.41666667       0.31103576 </v>
   <v>       0.50000000       0.41666667       0.31103576 </v>
   <v>       0.83333333       0.41666667       0.31103576 </v>
   <v>       0.00000000       0.66666667       0.31103576 </v>
   <v>       0.33333333       0.66666667       0.31103576 </v>
   <v>       0.66666667       0.66666667       0.31103576 </v>
   <v>       0.16666667       0.91666667       0.31103576 </v>
   <v>       0.50000000       0.91666667       0.31103576 </v>
   <v>       0.83333333       0.91666667       0.31103576 </v>
   <v>       0.99865360       0.00751246       0.38569333 </v>
   <v>       0.34518137       0.99232034       0.38364119 </v>
   <v>       0.66998172       0.00000355       0.38190363 </v>
   <v>       0.15744833       0.24610335       0.38832232 </v>
   <v>       0.50669335       0.25482928       0.38470810 </v>
   <v>       0.83314722       0.23941238       0.38235599 </v>
   <v>       0.97350298       0.49088964       0.38689777 </v>
   <v>       0.31257618       0.48855631       0.38084694 </v>
   <v>       0.64527209       0.51491559       0.38583878 </v>
   <v>       0.15484848       0.73944978       0.38165429 </v>
   <v>       0.48295249       0.75493364       0.38333483 </v>
   <v>       0.81931142       0.75544931       0.38234597 </v>
  </varray>
  <varray name="selective"  type="logical" >
   <v type="logical" >  T  T  T </v>
   <v type="logical" >  T  T  T </v>
   <v type="logical" >  T  T  T </v>
   <v type="logical" >  T  T  T </v>
   <v type="logical" >  T  T  T </v>
   <v type="logical" >  T  T  T </v>
   <v type="logical" >  T  T  T </v>
   <v type="logical" >  T  T  T </v>
   <v type="logical" >  T  T  T </v>
   <v type="logical" >  T  T  T </v>
   <v type="logical" >  T  T  T </v>
   <v type="logical" >  T  T  T </v>
   <v type="logical" >  T  T  T </v>
   <v type="logical" >  T  T  T </v>
   <v type="logical" >  T  T  T </v>
   <v type="logical" >  T  T  T </v>
   <v type="logical" >  T  T  T </v>
   <v type="logical" >  T  T  T </v>
   <v type="logical" >  T  T  T </v>
   <v type="logical" >  T  T  T </v>
   <v type="logical" >  T  T  T </v>
   <v type="logical" >  T  T  T </v>
   <v type="logical" >  T  T  T </v>
   <v type="logical" >  T  T  T </v>
   <v type="logical" >  T  T  T </v>
   <v type="logical" >  T  T  T </v>
   <v type="logical" >  T  T  T </v>
   <v type="logical" >  T  T  T </v>
   <v type="logical" >  T  T  T </v>
   <v type="logical" >  T  T  T </v>
   <v type="logical" >  T  T  T </v>
   <v type="logical" >  T  T  T </v>
   <v type="logical" >  T  T  T </v>
   <v type="logical" >  T  T  T </v>
   <v type="logical" >  T  T  T </v>
   <v type="logical" >  T  T  T </v>
   <v type="logical" >  T  T  T </v>
   <v type="logical" >  T  T  T </v>
   <v type="logical" >  T  T  T </v>
   <v type="logical" >  T  T  T </v>
   <v type="logical" >  T  T  T </v>
   <v type="logical" >  T  T  T </v>
   <v type="logical" >  T  T  T </v>
   <v type="logical" >  T  T  T </v>
   <v type="logical" >  T  T  T </v>
   <v type="logical" >  T  T  T </v>
   <v type="logical" >  T  T  T </v>
   <v type="logical" >  T  T  T </v>
   <v type="logical" >  T  T  T </v>
   <v type="logical" >  T  T  T </v>
   <v type="logical" >  T  T  T </v>
   <v type="logical" >  T  T  T </v>
   <v type="logical" >  T  T  T </v>
   <v type="logical" >  T  T  T </v>
   <v type="logical" >  T  T  T </v>
   <v type="logical" >  T  T  T </v>
   <v type="logical" >  T  T  T </v>
   <v type="logical" >  T  T  T </v>
   <v type="logical" >  T  T  T </v>
   <v type="logical" >  T  T  T </v>
   <v type="logical" >  T  T  T </v>
   <v type="logical" >  T  T  T </v>
   <v type="logical" >  T  T  T </v>
   <v type="logical" >  T  T  T </v>
   <v type="logical" >  T  T  T </v>
   <v type="logical" >  T  T  T </v>
   <v type="logical" >  T  T  T </v>
   <v type="logical" >  T  T  T </v>
   <v type="logical" >  T  T  T </v>
   <v type="logical" >  T  T  T </v>
   <v type="logical" >  T  T  T </v>
   <v type="logical" >  T  T  T </v>
   <v type="logical" >  F  F  F </v>
   <v type="logical" >  F  F  F </v>
   <v type="logical" >  F  F  F </v>
   <v type="logical" >  F  F  F </v>
   <v type="logical" >  F  F  F </v>
   <v type="logical" >  F  F  F </v>
   <v type="logical" >  F  F  F </v>
   <v type="logical" >  F  F  F </v>
   <v type="logical" >  F  F  F </v>
   <v type="logical" >  F  F  F </v>
   <v type="logical" >  F  F  F </v>
   <v type="logical" >  F  F  F </v>
   <v type="logical" >  F  F  F </v>
   <v type="logical" >  F  F  F </v>
   <v type="logical" >  F  F  F </v>
   <v type="logical" >  F  F  F </v>
   <v type="logical" >  F  F  F </v>
   <v type="logical" >  F  F  F </v>
   <v type="logical" >  F  F  F </v>
   <v type="logical" >  F  F  F </v>
   <v type="logical" >  F  F  F </v>
   <v type="logical" >  F  F  F </v>
   <v type="logical" >  F  F  F </v>
   <v type="logical" >  F  F  F </v>
   <v type="logical" >  T  T  T </v>
   <v type="logical" >  T  T  T </v>
   <v type="logical" >  T  T  T </v>
   <v type="logical" >  T  T  T </v>
   <v type="logical" >  T  T  T </v>
   <v type="logical" >  T  T  T </v>
   <v type="logical" >  T  T  T </v>
   <v type="logical" >  T  T  T </v>
   <v type="logical" >  T  T  T </v>
   <v type="logical" >  T  T  T </v>
   <v type="logical" >  T  T  T </v>
   <v type="logical" >  T  T  T </v>
  </varray>
  <varray name="velocities" >
   <v>       0.00223879      -0.00069136       0.00037688 </v>
   <v>       0.00067738       0.00023988      -0.00012482 </v>
   <v>      -0.00049278      -0.00161170      -0.00059449 </v>
   <v>       0.00201139       0.00149059       0.00071924 </v>
   <v>      -0.00141332       0.00037562      -0.00050461 </v>
   <v>      -0.00111209       0.00100122      -0.00010772 </v>
   <v>      -0.00287133      -0.00095136      -0.00037678 </v>
   <v>       0.00250458       0.00239403       0.00072757 </v>
   <v>      -0.00171911      -0.00077336      -0.00032045 </v>
   <v>      -0.00207609      -0.00127596      -0.00060179 </v>
   <v>      -0.00252654       0.00044126      -0.00017069 </v>
   <v>       0.00496430       0.00240430      -0.00072148 </v>
   <v>       0.00450471      -0.00091657      -0.00026228 </v>
   <v>       0.00285149       0.00139450      -0.00000028 </v>
   <v>       0.00183307      -0.00144795      -0.00039286 </v>
   <v>      -0.00084696       0.00274845      -0.00019981 </v>
   <v>      -0.00240934       0.00110895       0.00028052 </v>
   <v>      -0.00217302       0.00127629       0.00019390 </v>
   <v>       0.00129576       0.00061222      -0.00093206 </v>
   <v>      -0.00030549      -0.00178260      -0.00002600 </v>
   <v>      -0.00091825       0.00218491      -0.00041716 </v>
   <v>      -0.00044272       0.00117762       0.00075552 </v>
   <v>      -0.00191496       0.00043592      -0.00053521 </v>
   <v>      -0.00321871       0.00043338      -0.00085812 </v>
   <v>      -0.00325491      -0.00090161      -0.00057439 </v>
   <v>       0.00129019      -0.00035934      -0.00011434 </v>
   <v>      -0.00222784      -0.00009877       0.00022088 </v>
   <v>      -0.00320393      -0.00081310       0.00022328 </v>
   <v>       0.00103338      -0.00041901      -0.00036039 </v>
   <v>       0.00219804      -0.00106613      -0.00058482 </v>
   <v>       0.00138950      -0.00065496       0.00075974 </v>
   <v>      -0.00049967      -0.00218511       0.00010157 </v>
   <v>       0.00266847       0.00054332       0.00003551 </v>
   <v>      -0.00265708      -0.00302083      -0.00075468 </v>
   <v>      -0.00366952      -0.00118141      -0.00051278 </v>
   <v>      -0.00089273      -0.00069631       0.00058906 </v>
   <v>       0.00141836       0.00039138       0.00099099 </v>
   <v>       0.00094002       0.00035233      -0.00035528 </v>
   <v>      -0.00215307       0.00266051       0.00028903 </v>
   <v>       0.00339374       0.00180239       0.00023872 </v>
   <v>      -0.00309245      -0.00093312      -0.00064202 </v>
   <v>      -0.00068238      -0.00271349       0.00030101 </v>
   <v>       0.00139493      -0.00279565       0.00080097 </v>
   <v>       0.00171414      -0.00119898       0.00005159 </v>
   <v>       0.00118531       0.00166170      -0.00001937 </v>
   <v>       0.00340919      -0.00040691      -0.00017240 </v>
   <v>       0.00130879      -0.00027125       0.00022008 </v>
   <v>      -0.00410553      -0.00053654      -0.00009294 </v>
   <v>      -0.00107259      -0.00004720      -0.00010108 </v>
   <v>      -0.00027879      -0.00008826       0.00000228 </v>
   <v>      -0.00032081      -0.00026390       0.00014938 </v>
   <v>       0.00030075       0.00020601       0.00000011 </v>
   <v>      -0.00061553      -0.00001994      -0.00010472 </v>
   <v>      -0.00030112      -0.00034463      -0.00009837 </v>
   <v>       0.00009946      -0.00007947      -0.00012553 </v>
   <v>      -0.00066453       0.00043897       0.00007817 </v>
   <v>      -0.00023939       0.00006426      -0.00004699 </v>
   <v>      -0.00027187       0.00037439      -0.00017042 </v>
   <v>       0.00103505      -0.00048415       0.00004958 </v>
   <v>       0.00015076      -0.00051571       0.00011779 </v>
   <v>       0.00012007      -0.00031091       0.00001510 </v>
   <v>      -0.00001881      -0.00027152       0.00000893 </v>
   <v>       0.00160920      -0.00123455       0.00018390 </v>
   <v>       0.00027925       0.00039775      -0.00008574 </v>
   <v>       0.00022219       0.00004740      -0.00000920 </v>
   <v>       0.00037672      -0.00015127       0.00011206 </v>
   <v>      -0.00021430       0.00053109       0.00012926 </v>
   <v>      -0.00030330      -0.00036402       0.00005679 </v>
   <v>      -0.00035358      -0.00022905      -0.00014985 </v>
   <v>      -0.00056445      -0.00029121       0.00013995 </v>
   <v>       0.00054443       0.00000508      -0.00003321 </v>
   <v>       0.00061713       0.00056033      -0.00005653 </v>
   <v>       0.00000000       0.00000000       0.00000000 </v>
   <v>       0.00000000       0.00000000       0.00000000 </v>
   <v>       0.00000000       0.00000000       0.00000000 </v>
   <v>       0.00000000       0.00000000       0.00000000 </v>
   <v>       0.00000000       0.00000000       0.00000000 </v>
   <v>       0.00000000       0.00000000       0.00000000 </v>
   <v>       0.00000000       0.00000000       0.00000000 </v>
   <v>       0.00000000       0.00000000       0.00000000 </v>
   <v>       0.00000000       0.00000000       0.00000000 </v>
   <v>       0.00000000       0.00000000       0.00000000 </v>
   <v>       0.00000000       0.00000000       0.00000000 </v>
   <v>       0.00000000       0.00000000       0.00000000 </v>
   <v>       0.00000000       0.00000000       0.00000000 </v>
   <v>       0.00000000       0.00000000       0.00000000 </v>
   <v>       0.00000000       0.00000000       0.00000000 </v>
   <v>       0.00000000       0.00000000       0.00000000 </v>
   <v>       0.00000000       0.00000000       0.00000000 </v>
   <v>       0.00000000       0.00000000       0.00000000 </v>
   <v>       0.00000000       0.00000000       0.00000000 </v>
   <v>       0.00000000       0.00000000       0.00000000 </v>
   <v>       0.00000000       0.00000000       0.00000000 </v>
   <v>       0.00000000       0.00000000       0.00000000 </v>
   <v>       0.00000000       0.00000000       0.00000000 </v>
   <v>       0.00000000       0.00000000       0.00000000 </v>
   <v>      -0.00015794      -0.00001808       0.00002528 </v>
   <v>       0.00009292       0.00015370      -0.00004161 </v>
   <v>      -0.00027831      -0.00003081       0.00004850 </v>
   <v>       0.00012675      -0.00009133      -0.00002011 </v>
   <v>      -0.00008118       0.00009251      -0.00002688 </v>
   <v>      -0.00004517       0.00014397      -0.00004277 </v>
   <v>       0.00030612      -0.00005800      -0.00002897 </v>
   <v>      -0.00001257      -0.00018174      -0.00000199 </v>
   <v>      -0.00024611       0.00013443      -0.00000178 </v>
   <v>       0.00015924       0.00011944      -0.00000572 </v>
   <v>      -0.00012135       0.00013461      -0.00000029 </v>
   <v>      -0.00017427       0.00020178       0.00003983 </v>
  </varray>
  <nose>
   <v>       0.07314819       0.00000000     300.00000000     300.00000000 </v>
  </nose>
 </structure>
</modeling>
