PtH2O                                   
           1
     8.345889    0.000000    0.000000
     0.000000    9.637002    0.000000
     0.000000    0.000000   32.542926
   H    O    Pt
  48  24  36
Direct configuration=     1
   0.20590734  0.45722860  0.50795793
   0.21037265  0.48401963  0.46197192
   0.76857833  0.84949448  0.46587229
   0.78227971  0.67752846  0.47243747
   0.62417689  0.98179127  0.50982297
   0.60449073  0.04668596  0.46566488
   0.06600537  0.72440057  0.45747919
   0.21856545  0.80237740  0.45636958
   0.31714875  0.21928230  0.67413644
   0.40301924  0.08394357  0.67985220
   0.79088924  0.53772241  0.59319711
   0.76737512  0.69471331  0.59885522
   0.85501202  0.41343565  0.75689607
   0.75220916  0.35450433  0.72250680
   0.45832087  0.80384031  0.69648114
   0.60365392  0.90464084  0.70170442
   0.46284263  0.72361156  0.61700863
   0.24260799  0.13896865  0.56298819
   0.19950590  0.82240054  0.63787904
   0.15356309  0.93539525  0.67215158
   0.67380451  0.52596301  0.65776953
   0.56312791  0.39430876  0.66480952
   0.80221048  0.04820188  0.62767957
   0.63889770  0.10637010  0.64144210
   0.82304229  0.14492735  0.49703086
   0.96546041  0.18867389  0.46972734
   0.26537104  0.04596856  0.46536285
   0.28533895  0.99144544  0.50979052
   0.95129723  0.85462159  0.62318808
   0.97091144  0.91852747  0.58271538
   0.48702574  0.39290628  0.47439359
   0.60881997  0.28834956  0.45803307
   0.85159365  0.31388194  0.55589828
   0.86262762  0.27609310  0.60386699
   0.47056473  0.21449930  0.58622554
   0.47569965  0.27766554  0.54149891
   0.26633449  0.42255923  0.58561841
   0.08801731  0.44341882  0.58370946
   0.07021537  0.15594894  0.71138799
   0.93598681  0.12580719  0.67840237
   0.09092880  0.12888734  0.53848275
   0.32874132  0.68575529  0.58480079
   0.72232366  0.45208013  0.50220326
   0.71545902  0.56764057  0.53508553
   0.49158002  0.90802052  0.57406675
   0.66078957  0.97608631  0.57869768
   0.27710535  0.64805696  0.69381533
   0.45997303  0.57781963  0.69516728
   0.24061401  0.41308569  0.48236961
   0.83052024  0.76144366  0.45859469
   0.67757838  0.99502507  0.48216269
   0.17549879  0.71275605  0.44876860
   0.41380235  0.17208331  0.66522262
   0.71377743  0.61096081  0.60362945
   0.84092990  0.32708001  0.74171684
   0.51300023  0.88594082  0.68306085
   0.15581409  0.07242673  0.55654387
   0.12425678  0.84629165  0.65846283
   0.61709987  0.47452438  0.67847312
   0.74782869  0.13084967  0.63964033
   0.93205895  0.16999041  0.49754033
   0.29627474  0.96382836  0.48118047
   0.88343833  0.87628900  0.59730095
   0.57271817  0.32571436  0.48460461
   0.88045950  0.34727821  0.58353234
   0.41583903  0.28546140  0.56836498
   0.19015730  0.49656169  0.58097104
   0.05784716  0.12866748  0.68320195
   0.36421164  0.75786218  0.60344143
   0.78101791  0.53476427  0.51128293
   0.55864322  0.99208893  0.56734853
   0.38782797  0.65742554  0.70358217
   0.16666667  0.08333333  0.24123678
   0.50000000  0.08333333  0.24123678
   0.83333333  0.08333333  0.24123678
   0.00000000  0.33333333  0.24123678
   0.33333333  0.33333333  0.24123678
   0.66666667  0.33333333  0.24123678
   0.16666667  0.58333333  0.24123678
   0.50000000  0.58333333  0.24123678
   0.83333333  0.58333333  0.24123678
   0.00000000  0.83333333  0.24123678
   0.33333333  0.83333333  0.24123678
   0.66666667  0.83333333  0.24123678
   0.00000000  0.16666667  0.31103576
   0.33333333  0.16666667  0.31103576
   0.66666667  0.16666667  0.31103576
   0.16666667  0.41666667  0.31103576
   0.50000000  0.41666667  0.31103576
   0.83333333  0.41666667  0.31103576
   0.00000000  0.66666667  0.31103576
   0.33333333  0.66666667  0.31103576
   0.66666667  0.66666667  0.31103576
   0.16666667  0.91666667  0.31103576
   0.50000000  0.91666667  0.31103576
   0.83333333  0.91666667  0.31103576
   0.99913355  0.00755337  0.38561656
   0.34488750  0.99188129  0.38376413
   0.67080494  0.00009919  0.38175956
   0.15707821  0.24637621  0.38838062
   0.50692604  0.25455039  0.38478730
   0.83327728  0.23899435  0.38248522
   0.97259400  0.49106390  0.38698184
   0.31262178  0.48909938  0.38085374
   0.64600786  0.51450415  0.38584282
   0.15437053  0.73909748  0.38167136
   0.48332494  0.75452168  0.38333521
   0.81983440  0.75483927  0.38222886
Direct configuration=     2
   0.20839962  0.45629932  0.50792721
   0.21147764  0.48340748  0.46224060
   0.76854517  0.84764149  0.46517087
   0.78529687  0.68050384  0.47288127
   0.62232553  0.98190224  0.50975177
   0.60348311  0.04860478  0.46556472
   0.06305728  0.72348933  0.45713810
   0.22163339  0.80682635  0.45708992
   0.31423325  0.21873856  0.67420236
   0.39944867  0.08264888  0.67952381
   0.79123383  0.53692075  0.59250616
   0.76874505  0.69113391  0.59837724
   0.85989586  0.41496254  0.75700478
   0.75343258  0.35631376  0.72227025
   0.45931667  0.80107952  0.69654700
   0.60081732  0.90667501  0.70116261
   0.46198351  0.72461719  0.61746115
   0.23937543  0.13987319  0.56291320
   0.19900905  0.82254830  0.63688650
   0.15356269  0.93421736  0.67254187
   0.67298785  0.52834370  0.65777518
   0.56117872  0.39441975  0.66561348
   0.79999945  0.04928840  0.62719603
   0.63670709  0.10662391  0.64046503
   0.82301571  0.14566949  0.49675816
   0.96761606  0.18843818  0.46933649
   0.26365991  0.04504257  0.46588043
   0.28295060  0.99101951  0.51004798
   0.95381597  0.85422276  0.62278250
   0.97320366  0.91679825  0.58263706
   0.48883288  0.39298057  0.47503459
   0.60805256  0.28617422  0.45827394
   0.85320125  0.31393881  0.55530416
   0.86014568  0.27141066  0.60361839
   0.46758280  0.21243863  0.58587446
   0.47596422  0.27648485  0.54183236
   0.26463675  0.42449917  0.58661297
   0.08865940  0.44241923  0.58346045
   0.06837129  0.15774682  0.71111398
   0.93705733  0.12731455  0.67860302
   0.09108478  0.12694808  0.53856821
   0.32859976  0.68450779  0.58520005
   0.72331893  0.44819049  0.50312970
   0.71671424  0.56645166  0.53532528
   0.49162508  0.90870057  0.57395668
   0.66502255  0.97653851  0.57855009
   0.27642537  0.64750876  0.69395692
   0.45601960  0.57672193  0.69508323
   0.23949949  0.41310263  0.48226420
   0.83010233  0.76130281  0.45862806
   0.67735283  0.99473062  0.48227808
   0.17581177  0.71274584  0.44874311
   0.41334763  0.17204965  0.66508745
   0.71350764  0.61109373  0.60354356
   0.84108816  0.32682079  0.74158693
   0.51247593  0.88641257  0.68314332
   0.15545546  0.07259035  0.55646980
   0.12410247  0.84668820  0.65827819
   0.61822211  0.47414833  0.67849677
   0.74788593  0.13032660  0.63976034
   0.93188209  0.16955086  0.49755563
   0.29621348  0.96361187  0.48117505
   0.88490870  0.87505946  0.59744933
   0.57299806  0.32608028  0.48451484
   0.88072366  0.34743141  0.58353164
   0.41608857  0.28542755  0.56848088
   0.19016603  0.49706126  0.58110209
   0.05767128  0.12834826  0.68328564
   0.36373504  0.75754782  0.60328066
   0.78053333  0.53451559  0.51141076
   0.55920828  0.99212847  0.56732291
   0.38860626  0.65807393  0.70351791
   0.16666667  0.08333333  0.24123678
   0.50000000  0.08333333  0.24123678
   0.83333333  0.08333333  0.24123678
   0.00000000  0.33333333  0.24123678
   0.33333333  0.33333333  0.24123678
   0.66666667  0.33333333  0.24123678
   0.16666667  0.58333333  0.24123678
   0.50000000  0.58333333  0.24123678
   0.83333333  0.58333333  0.24123678
   0.00000000  0.83333333  0.24123678
   0.33333333  0.83333333  0.24123678
   0.66666667  0.83333333  0.24123678
   0.00000000  0.16666667  0.31103576
   0.33333333  0.16666667  0.31103576
   0.66666667  0.16666667  0.31103576
   0.16666667  0.41666667  0.31103576
   0.50000000  0.41666667  0.31103576
   0.83333333  0.41666667  0.31103576
   0.00000000  0.66666667  0.31103576
   0.33333333  0.66666667  0.31103576
   0.66666667  0.66666667  0.31103576
   0.16666667  0.91666667  0.31103576
   0.50000000  0.91666667  0.31103576
   0.83333333  0.91666667  0.31103576
   0.99897157  0.00754418  0.38564245
   0.34499043  0.99202028  0.38372380
   0.67053454  0.00006628  0.38180711
   0.15719817  0.24628565  0.38836188
   0.50685212  0.25464377  0.38476139
   0.83323575  0.23912902  0.38244185
   0.97289376  0.49100576  0.38695476
   0.31260396  0.48891914  0.38085120
   0.64576356  0.51464397  0.38584190
   0.15452991  0.73921288  0.38166574
   0.48319804  0.75466165  0.38333524
   0.81966007  0.75504408  0.38226706
Direct configuration=     3
   0.21080193  0.45543067  0.50808948
   0.21246214  0.48298649  0.46236232
   0.76849349  0.84556229  0.46449261
   0.78806767  0.68320053  0.47338852
   0.62074884  0.98218242  0.50941672
   0.60205221  0.05033805  0.46538606
   0.05951971  0.72252246  0.45681189
   0.22478881  0.81073989  0.45785958
   0.31167288  0.21817080  0.67409850
   0.39656058  0.08120517  0.67908291
   0.79015811  0.53679658  0.59206398
   0.77232755  0.69110583  0.59773550
   0.86470223  0.41550136  0.75697399
   0.75562047  0.35785607  0.72218041
   0.46066275  0.79881140  0.69639720
   0.59853514  0.90895704  0.70070101
   0.46022888  0.72570992  0.61781419
   0.23649852  0.14081609  0.56295946
   0.19984201  0.82276965  0.63578049
   0.15330776  0.93252022  0.67269549
   0.67234610  0.53088437  0.65750352
   0.56005951  0.39522725  0.66644229
   0.79775360  0.05026743  0.62670806
   0.63325565  0.10678682  0.63954628
   0.82081004  0.14547847  0.49633316
   0.96947430  0.18819588  0.46899649
   0.26173755  0.04442632  0.46628206
   0.28011137  0.99048518  0.51034309
   0.95544284  0.85386606  0.62231511
   0.97578934  0.91554716  0.58225067
   0.49080679  0.39238533  0.47579892
   0.60747801  0.28392134  0.45844186
   0.85532256  0.31418701  0.55500888
   0.85745670  0.26716063  0.60318095
   0.46409170  0.21102936  0.58537761
   0.47550136  0.27553978  0.54237013
   0.26451094  0.42562559  0.58760468
   0.08955687  0.44212249  0.58315470
   0.06632313  0.16001976  0.71116532
   0.93985580  0.12901423  0.67886376
   0.08959445  0.12554303  0.53828128
   0.32815763  0.68247102  0.58553564
   0.72437728  0.44457345  0.50398485
   0.71840584  0.56515046  0.53539762
   0.49232883  0.91006871  0.57387409
   0.66959940  0.97650192  0.57846428
   0.27675064  0.64700600  0.69412885
   0.45171996  0.57604561  0.69499935
   0.23839762  0.41310562  0.48215830
   0.82972458  0.76118229  0.45865185
   0.67709962  0.99443110  0.48241844
   0.17613528  0.71281321  0.44872589
   0.41283130  0.17202726  0.66496452
   0.71319588  0.61094912  0.60345412
   0.84120052  0.32664071  0.74145459
   0.51191366  0.88688379  0.68322870
   0.15516878  0.07271200  0.55641102
   0.12386548  0.84709877  0.65811115
   0.61928192  0.47369287  0.67853484
   0.74804704  0.12980392  0.63987786
   0.93187974  0.16917947  0.49757629
   0.29617370  0.96337076  0.48117158
   0.88643968  0.87381388  0.59762461
   0.57325034  0.32648578  0.48442335
   0.88097558  0.34756025  0.58352358
   0.41642097  0.28532199  0.56859402
   0.19005573  0.49757777  0.58123253
   0.05739918  0.12800081  0.68335049
   0.36333039  0.75727653  0.60312699
   0.78000440  0.53426794  0.51155004
   0.55971091  0.99214260  0.56728992
   0.38932022  0.65867609  0.70345752
   0.16666667  0.08333333  0.24123678
   0.50000000  0.08333333  0.24123678
   0.83333333  0.08333333  0.24123678
   0.00000000  0.33333333  0.24123678
   0.33333333  0.33333333  0.24123678
   0.66666667  0.33333333  0.24123678
   0.16666667  0.58333333  0.24123678
   0.50000000  0.58333333  0.24123678
   0.83333333  0.58333333  0.24123678
   0.00000000  0.83333333  0.24123678
   0.33333333  0.83333333  0.24123678
   0.66666667  0.83333333  0.24123678
   0.00000000  0.16666667  0.31103576
   0.33333333  0.16666667  0.31103576
   0.66666667  0.16666667  0.31103576
   0.16666667  0.41666667  0.31103576
   0.50000000  0.41666667  0.31103576
   0.83333333  0.41666667  0.31103576
   0.00000000  0.66666667  0.31103576
   0.33333333  0.66666667  0.31103576
   0.66666667  0.66666667  0.31103576
   0.16666667  0.91666667  0.31103576
   0.50000000  0.91666667  0.31103576
   0.83333333  0.91666667  0.31103576
   0.99881154  0.00753054  0.38566804
   0.34508845  0.99216664  0.38368281
   0.67026003  0.00003436  0.38185514
   0.15732158  0.24619468  0.38834243
   0.50677453  0.25473677  0.38473499
   0.83319239  0.23926840  0.38239876
   0.97319686  0.49094764  0.38692673
   0.31258875  0.48873805  0.38084893
   0.64551820  0.51478116  0.38584056
   0.15468924  0.73933033  0.38166001
   0.48307383  0.75479903  0.38333511
   0.81948569  0.75524754  0.38230614
