 108 108   0   0
  0.2423524E+02  0.8345889E-09  0.9637002E-09  0.3254293E-08  0.5000000E-15
  1.000000000000000E-004
  CAR 
 CuH2O                                   
      5.72755344    -26.89382668  301     -1.00759891      1.00000000
    -26.894  0.0000E+00  0.0000E+00
    -26.785  0.0000E+00  0.0000E+00
    -26.676  0.0000E+00  0.0000E+00
    -26.568  0.0000E+00  0.0000E+00
    -26.459  0.0000E+00  0.0000E+00
    -26.350  0.0000E+00  0.0000E+00
    -26.241  0.0000E+00  0.0000E+00
    -26.133  0.0000E+00  0.0000E+00
    -26.024  0.0000E+00  0.0000E+00
    -25.915  0.9052E-11  0.9843E-12
    -25.806  0.2030E-06  0.2208E-07
    -25.698  0.4567E-03  0.4968E-04
    -25.589  0.1077E+00  0.1176E-01
    -25.480  0.2893E+01  0.3263E+00
    -25.371  0.1008E+02  0.1422E+01
    -25.263  0.4982E+01  0.1964E+01
    -25.154  0.3308E+00  0.2000E+01
    -25.045  0.3116E-02  0.2000E+01
    -24.937  0.1188E+00  0.2013E+01
    -24.828  0.3042E+01  0.2344E+01
    -24.719  0.1013E+02  0.3446E+01
    -24.610  0.4793E+01  0.3967E+01
    -24.502  0.3037E+00  0.4000E+01
    -24.393  0.2259E-02  0.4000E+01
    -24.284  0.1790E-05  0.4000E+01
    -24.175  0.1435E-09  0.4000E+01
    -24.067  0.0000E+00  0.4000E+01
    -23.958  0.0000E+00  0.4000E+01
    -23.849  0.0000E+00  0.4000E+01
    -23.740  0.0000E+00  0.4000E+01
    -23.632  0.0000E+00  0.4000E+01
    -23.523  0.0000E+00  0.4000E+01
    -23.414  0.0000E+00  0.4000E+01
    -23.305  0.0000E+00  0.4000E+01
    -23.197  0.7083E-12  0.4000E+01
    -23.088  0.2630E-07  0.4000E+01
    -22.979  0.9787E-04  0.4000E+01
    -22.871  0.3791E-01  0.4004E+01
    -22.762  0.1643E+01  0.4183E+01
    -22.653  0.9004E+01  0.5162E+01
    -22.544  0.7424E+01  0.5969E+01
    -22.436  0.6788E+01  0.6707E+01
    -22.327  0.1453E+02  0.8287E+01
    -22.218  0.1325E+02  0.9727E+01
    -22.109  0.1012E+02  0.1083E+02
    -22.001  0.9165E+01  0.1182E+02
    -21.892  0.3711E+01  0.1223E+02
    -21.783  0.9568E+01  0.1327E+02
    -21.674  0.6833E+01  0.1401E+02
    -21.566  0.7145E+01  0.1479E+02
    -21.457  0.9271E+01  0.1580E+02
    -21.348  0.1902E+01  0.1600E+02
    -21.239  0.2757E+01  0.1630E+02
    -21.131  0.1723E+02  0.1818E+02
    -21.022  0.2478E+02  0.2087E+02
    -20.913  0.9594E+01  0.2191E+02
    -20.805  0.7932E+00  0.2200E+02
    -20.696  0.9357E+00  0.2210E+02
    -20.587  0.7740E+01  0.2294E+02
    -20.478  0.1239E+02  0.2429E+02
    -20.370  0.1162E+02  0.2555E+02
    -20.261  0.4612E+01  0.2606E+02
    -20.152  0.7242E+01  0.2684E+02
    -20.043  0.1325E+02  0.2828E+02
    -19.935  0.1201E+02  0.2959E+02
    -19.826  0.5663E+01  0.3021E+02
    -19.717  0.9637E+01  0.3125E+02
    -19.608  0.6455E+01  0.3196E+02
    -19.500  0.4277E+01  0.3242E+02
    -19.391  0.1027E+02  0.3354E+02
    -19.282  0.4036E+01  0.3398E+02
    -19.173  0.2102E+00  0.3400E+02
    -19.065  0.1270E-02  0.3400E+02
    -18.956  0.8127E-06  0.3400E+02
    -18.847  0.5266E-10  0.3400E+02
    -18.738  0.1057E-07  0.3400E+02
    -18.630  0.4948E-04  0.3400E+02
    -18.521  0.2385E-01  0.3400E+02
    -18.412  0.1269E+01  0.3414E+02
    -18.304  0.8373E+01  0.3505E+02
    -18.195  0.7723E+01  0.3589E+02
    -18.086  0.9900E+00  0.3600E+02
    -17.977  0.2247E+00  0.3602E+02
    -17.869  0.4026E+01  0.3646E+02
    -17.760  0.1027E+02  0.3758E+02
    -17.651  0.4498E+01  0.3807E+02
    -17.542  0.9046E+01  0.3905E+02
    -17.434  0.1905E+02  0.4112E+02
    -17.325  0.1459E+02  0.4271E+02
    -17.216  0.9955E+01  0.4379E+02
    -17.107  0.1886E+01  0.4399E+02
    -16.999  0.8640E-01  0.4400E+02
    -16.890  0.1663E+01  0.4419E+02
    -16.781  0.9090E+01  0.4517E+02
    -16.672  0.8824E+01  0.4613E+02
    -16.564  0.1008E+02  0.4723E+02
    -16.455  0.6470E+01  0.4793E+02
    -16.346  0.6107E+00  0.4800E+02
    -16.238  0.6946E-02  0.4800E+02
    -16.129  0.8541E-05  0.4800E+02
    -16.020  0.1071E-08  0.4800E+02
    -15.911  0.1225E-13  0.4800E+02
    -15.803  0.0000E+00  0.4800E+02
    -15.694  0.0000E+00  0.4800E+02
    -15.585  0.0000E+00  0.4800E+02
    -15.476  0.0000E+00  0.4800E+02
    -15.368  0.0000E+00  0.4800E+02
    -15.259  0.0000E+00  0.4800E+02
    -15.150  0.0000E+00  0.4800E+02
    -15.041  0.0000E+00  0.4800E+02
    -14.933  0.0000E+00  0.4800E+02
    -14.824  0.0000E+00  0.4800E+02
    -14.715  0.0000E+00  0.4800E+02
    -14.606  0.0000E+00  0.4800E+02
    -14.498  0.0000E+00  0.4800E+02
    -14.389  0.0000E+00  0.4800E+02
    -14.280  0.0000E+00  0.4800E+02
    -14.171  0.0000E+00  0.4800E+02
    -14.063  0.0000E+00  0.4800E+02
    -13.954  0.0000E+00  0.4800E+02
    -13.845  0.0000E+00  0.4800E+02
    -13.737  0.0000E+00  0.4800E+02
    -13.628  0.3582E-13  0.4800E+02
    -13.519  0.2402E-08  0.4800E+02
    -13.410  0.1592E-04  0.4800E+02
    -13.302  0.1080E-01  0.4800E+02
    -13.193  0.7970E+00  0.4809E+02
    -13.084  0.7154E+01  0.4887E+02
    -12.975  0.8858E+01  0.4983E+02
    -12.867  0.1540E+01  0.5000E+02
    -12.758  0.3374E-01  0.5000E+02
    -12.649  0.6320E-01  0.5001E+02
    -12.540  0.2183E+01  0.5024E+02
    -12.432  0.9679E+01  0.5130E+02
    -12.323  0.7961E+01  0.5216E+02
    -12.214  0.9965E+01  0.5325E+02
    -12.105  0.8345E+01  0.5415E+02
    -11.997  0.9997E+01  0.5524E+02
    -11.888  0.6388E+01  0.5593E+02
    -11.779  0.5923E+00  0.5600E+02
    -11.671  0.6610E-02  0.5600E+02
    -11.562  0.7974E-05  0.5600E+02
    -11.453  0.9808E-09  0.5600E+02
    -11.344  0.1191E-13  0.5600E+02
    -11.236  0.0000E+00  0.5600E+02
    -11.127  0.0000E+00  0.5600E+02
    -11.018  0.1581E-11  0.5600E+02
    -10.909  0.4279E-07  0.5600E+02
    -10.801  0.1216E-03  0.5600E+02
    -10.692  0.3843E-01  0.5600E+02
    -10.583  0.1497E+01  0.5617E+02
    -10.474  0.8592E+01  0.5710E+02
    -10.366  0.1161E+02  0.5836E+02
    -10.257  0.1062E+02  0.5952E+02
    -10.148  0.4510E+01  0.6001E+02
    -10.039  0.1386E+01  0.6016E+02
     -9.931  0.4381E+01  0.6064E+02
     -9.822  0.1310E+02  0.6206E+02
     -9.713  0.1115E+02  0.6327E+02
     -9.604  0.1781E+02  0.6521E+02
     -9.496  0.1736E+02  0.6710E+02
     -9.387  0.6329E+01  0.6779E+02
     -9.278  0.9952E+01  0.6887E+02
     -9.170  0.1499E+02  0.7050E+02
     -9.061  0.1691E+02  0.7234E+02
     -8.952  0.2057E+02  0.7457E+02
     -8.843  0.1507E+02  0.7621E+02
     -8.735  0.1035E+02  0.7734E+02
     -8.626  0.5686E+01  0.7796E+02
     -8.517  0.1148E+02  0.7920E+02
     -8.408  0.1691E+02  0.8104E+02
     -8.300  0.1564E+02  0.8274E+02
     -8.191  0.1080E+02  0.8392E+02
     -8.082  0.1526E+02  0.8558E+02
     -7.973  0.2016E+02  0.8777E+02
     -7.865  0.2456E+02  0.9044E+02
     -7.756  0.3335E+02  0.9407E+02
     -7.647  0.2691E+02  0.9699E+02
     -7.538  0.1760E+02  0.9891E+02
     -7.430  0.3009E+02  0.1022E+03
     -7.321  0.3448E+02  0.1059E+03
     -7.212  0.3371E+02  0.1096E+03
     -7.104  0.3521E+02  0.1134E+03
     -6.995  0.4615E+02  0.1184E+03
     -6.886  0.5815E+02  0.1248E+03
     -6.777  0.5514E+02  0.1308E+03
     -6.669  0.5793E+02  0.1371E+03
     -6.560  0.6850E+02  0.1445E+03
     -6.451  0.7183E+02  0.1523E+03
     -6.342  0.6816E+02  0.1597E+03
     -6.234  0.5173E+02  0.1654E+03
     -6.125  0.4265E+02  0.1700E+03
     -6.016  0.3964E+02  0.1743E+03
     -5.907  0.5267E+02  0.1800E+03
     -5.799  0.5729E+02  0.1863E+03
     -5.690  0.5173E+02  0.1919E+03
     -5.581  0.4841E+02  0.1971E+03
     -5.472  0.4055E+02  0.2016E+03
     -5.364  0.3919E+02  0.2058E+03
     -5.255  0.6297E+02  0.2127E+03
     -5.146  0.9719E+02  0.2232E+03
     -5.038  0.8904E+02  0.2329E+03
     -4.929  0.6255E+02  0.2397E+03
     -4.820  0.5485E+02  0.2457E+03
     -4.711  0.6371E+02  0.2526E+03
     -4.603  0.9186E+02  0.2626E+03
     -4.494  0.9360E+02  0.2728E+03
     -4.385  0.7633E+02  0.2811E+03
     -4.276  0.8328E+02  0.2901E+03
     -4.168  0.8812E+02  0.2997E+03
     -4.059  0.8423E+02  0.3089E+03
     -3.950  0.9623E+02  0.3193E+03
     -3.841  0.9504E+02  0.3297E+03
     -3.733  0.8445E+02  0.3389E+03
     -3.624  0.9093E+02  0.3487E+03
     -3.515  0.8142E+02  0.3576E+03
     -3.406  0.7234E+02  0.3655E+03
     -3.298  0.6715E+02  0.3728E+03
     -3.189  0.5687E+02  0.3789E+03
     -3.080  0.5477E+02  0.3849E+03
     -2.971  0.6143E+02  0.3916E+03
     -2.863  0.6189E+02  0.3983E+03
     -2.754  0.7383E+02  0.4063E+03
     -2.645  0.8574E+02  0.4157E+03
     -2.537  0.8983E+02  0.4254E+03
     -2.428  0.9143E+02  0.4354E+03
     -2.319  0.8566E+02  0.4447E+03
     -2.210  0.6580E+02  0.4518E+03
     -2.102  0.5411E+02  0.4577E+03
     -1.993  0.7167E+02  0.4655E+03
     -1.884  0.6815E+02  0.4729E+03
     -1.775  0.6576E+02  0.4801E+03
     -1.667  0.7909E+02  0.4887E+03
     -1.558  0.7779E+02  0.4971E+03
     -1.449  0.8057E+02  0.5059E+03
     -1.340  0.8093E+02  0.5147E+03
     -1.232  0.8717E+02  0.5242E+03
     -1.123  0.1181E+03  0.5370E+03
     -1.014  0.1304E+03  0.5512E+03
     -0.905  0.1078E+03  0.5629E+03
     -0.797  0.6657E+02  0.5702E+03
     -0.688  0.4896E+02  0.5755E+03
     -0.579  0.3612E+02  0.5794E+03
     -0.471  0.2334E+02  0.5819E+03
     -0.362  0.2148E+02  0.5843E+03
     -0.253  0.2110E+02  0.5866E+03
     -0.144  0.2595E+02  0.5894E+03
     -0.036  0.2307E+02  0.5919E+03
      0.073  0.2503E+02  0.5946E+03
      0.182  0.3498E+02  0.5984E+03
      0.291  0.2505E+02  0.6012E+03
      0.399  0.8486E+01  0.6021E+03
      0.508  0.1017E+02  0.6032E+03
      0.617  0.1076E+02  0.6043E+03
      0.726  0.1124E+02  0.6056E+03
      0.834  0.1402E+02  0.6071E+03
      0.943  0.1332E+02  0.6085E+03
      1.052  0.1833E+02  0.6105E+03
      1.161  0.2269E+02  0.6130E+03
      1.269  0.1949E+02  0.6151E+03
      1.378  0.8880E+01  0.6161E+03
      1.487  0.3714E+01  0.6165E+03
      1.596  0.8442E+01  0.6174E+03
      1.704  0.1427E+02  0.6190E+03
      1.813  0.1462E+02  0.6206E+03
      1.922  0.2133E+02  0.6229E+03
      2.030  0.2374E+02  0.6255E+03
      2.139  0.1439E+02  0.6270E+03
      2.248  0.1241E+02  0.6284E+03
      2.357  0.1415E+02  0.6299E+03
      2.465  0.1906E+02  0.6320E+03
      2.574  0.1687E+02  0.6338E+03
      2.683  0.1211E+02  0.6351E+03
      2.792  0.1785E+02  0.6371E+03
      2.900  0.1637E+02  0.6389E+03
      3.009  0.1967E+02  0.6410E+03
      3.118  0.2958E+02  0.6442E+03
      3.227  0.1986E+02  0.6464E+03
      3.335  0.1143E+02  0.6476E+03
      3.444  0.8979E+01  0.6486E+03
      3.553  0.1850E+02  0.6506E+03
      3.662  0.2835E+02  0.6537E+03
      3.770  0.2322E+02  0.6562E+03
      3.879  0.2089E+02  0.6585E+03
      3.988  0.1526E+02  0.6601E+03
      4.096  0.1075E+02  0.6613E+03
      4.205  0.4767E+01  0.6618E+03
      4.314  0.1358E+01  0.6620E+03
      4.423  0.2556E+00  0.6620E+03
      4.531  0.9102E-02  0.6620E+03
      4.640  0.3857E-04  0.6620E+03
      4.749  0.1721E-07  0.6620E+03
      4.858  0.7707E-12  0.6620E+03
      4.966  0.0000E+00  0.6620E+03
      5.075  0.0000E+00  0.6620E+03
      5.184  0.0000E+00  0.6620E+03
      5.293  0.0000E+00  0.6620E+03
      5.401  0.0000E+00  0.6620E+03
      5.510  0.0000E+00  0.6620E+03
      5.619  0.0000E+00  0.6620E+03
      5.728  0.0000E+00  0.6620E+03
