  108  108    1    1
  0.2423524E+02  0.8345889E-09  0.9637002E-09  0.3254293E-08  0.5000000E-15
  1.000000000000000E-004
  CAR 
 CuH2O                                   
    552      7    331
 
  0.0000000E+00  0.0000000E+00  0.0000000E+00  0.8333333E-01
    1      -25.411037   1.000000
    2      -24.761098   1.000000
    3      -22.663018   1.000000
    4      -22.413117   1.000000
    5      -22.286251   1.000000
    6      -22.090476   1.000000
    7      -21.807871   1.000000
    8      -21.546583   1.000000
    9      -21.154630   1.000000
   10      -21.103379   1.000000
   11      -21.040826   1.000000
   12      -20.580516   1.000000
   13      -20.424115   1.000000
   14      -20.134742   1.000000
   15      -19.993832   1.000000
   16      -19.741183   1.000000
   17      -19.442987   1.000000
   18      -18.308159   1.000000
   19      -17.816440   1.000000
   20      -17.527492   1.000000
   21      -17.454468   1.000000
   22      -17.304333   1.000000
   23      -16.796336   1.000000
   24      -16.584649   1.000000
   25      -13.072042   1.000000
   26      -12.457648   1.000000
   27      -12.237870   1.000000
   28      -12.019322   1.000000
   29      -10.443369   1.000000
   30      -10.357681   1.000000
   31      -10.101421   1.000000
   32       -9.870787   1.000000
   33       -9.623514   1.000000
   34       -9.559758   1.000000
   35       -9.272317   1.000000
   36       -9.072411   1.000000
   37       -8.967126   1.000000
   38       -8.825149   1.000000
   39       -8.417546   1.000000
   40       -8.325065   1.000000
   41       -8.310250   1.000000
   42       -8.307286   1.000000
   43       -8.292351   1.000000
   44       -8.054381   1.000000
   45       -7.899565   1.000000
   46       -7.891958   1.000000
   47       -7.868962   1.000000
   48       -7.782999   1.000000
   49       -7.756495   1.000000
   50       -7.755590   1.000000
   51       -7.493554   1.000000
   52       -7.344899   1.000000
   53       -7.343290   1.000000
   54       -7.342852   1.000000
   55       -7.342577   1.000000
   56       -7.271163   1.000000
   57       -7.237489   1.000000
   58       -7.218164   1.000000
   59       -7.007833   1.000000
   60       -6.917885   1.000000
   61       -6.917716   1.000000
   62       -6.917254   1.000000
   63       -6.916772   1.000000
   64       -6.916573   1.000000
   65       -6.910848   1.000000
   66       -6.883361   1.000000
   67       -6.761515   1.000000
   68       -6.607404   1.000000
   69       -6.542494   1.000000
   70       -6.542267   1.000000
   71       -6.541773   1.000000
   72       -6.541696   1.000000
   73       -6.536476   1.000000
   74       -6.515831   1.000000
   75       -6.514874   1.000000
   76       -6.490910   1.000000
   77       -6.489254   1.000000
   78       -6.168596   1.000000
   79       -6.168357   1.000000
   80       -6.167455   1.000000
   81       -6.167303   1.000000
   82       -6.158256   1.000000
   83       -6.109898   1.000000
   84       -6.109651   1.000000
   85       -6.069234   1.000000
   86       -6.003642   1.000000
   87       -6.003365   1.000000
   88       -6.000662   1.000000
   89       -6.000323   1.000000
   90       -5.978180   1.000000
   91       -5.977652   1.000000
   92       -5.935524   1.000000
   93       -5.895023   1.000000
   94       -5.847128   1.000000
   95       -5.756481   1.000000
   96       -5.756139   1.000000
   97       -5.676799   1.000000
   98       -5.661297   1.000000
   99       -5.660937   1.000000
  100       -5.621419   1.000000
  101       -5.402650   1.000000
  102       -5.400428   1.000000
  103       -5.398158   1.000000
  104       -5.397232   1.000000
  105       -5.396478   1.000000
  106       -5.340936   1.000000
  107       -5.321538   1.000000
  108       -5.205773   1.000000
  109       -5.205502   1.000000
  110       -5.205174   1.000000
  111       -5.177120   1.000000
  112       -5.175093   1.000000
  113       -5.128388   1.000000
  114       -5.094194   1.000000
  115       -5.072532   1.000000
  116       -5.071637   1.000000
  117       -5.070580   1.000000
  118       -5.069700   1.000000
  119       -4.991358   1.000000
  120       -4.939468   1.000000
  121       -4.938988   1.000000
  122       -4.880509   1.000000
  123       -4.808656   1.000000
  124       -4.737606   1.000000
  125       -4.629647   1.000000
  126       -4.618865   1.000000
  127       -4.581883   1.000000
  128       -4.576312   1.000000
  129       -4.528868   1.000000
  130       -4.527273   1.000000
  131       -4.526290   1.000000
  132       -4.524990   1.000000
  133       -4.512201   1.000000
  134       -4.510161   1.000000
  135       -4.504335   1.000000
  136       -4.502754   1.000000
  137       -4.498025   1.000000
  138       -4.497782   1.000000
  139       -4.474807   1.000000
  140       -4.436813   1.000000
  141       -4.436567   1.000000
  142       -4.408520   1.000000
  143       -4.340922   1.000000
  144       -4.273920   1.000000
  145       -4.233000   1.000000
  146       -4.232163   1.000000
  147       -4.231481   1.000000
  148       -4.229538   1.000000
  149       -4.191046   1.000000
  150       -4.190333   1.000000
  151       -4.172825   1.000000
  152       -4.166976   1.000000
  153       -4.163529   1.000000
  154       -4.123542   1.000000
  155       -3.997389   1.000000
  156       -3.966313   1.000000
  157       -3.950674   1.000000
  158       -3.948202   1.000000
  159       -3.935489   1.000000
  160       -3.934558   1.000000
  161       -3.934054   1.000000
  162       -3.930095   1.000000
  163       -3.882337   1.000000
  164       -3.878854   1.000000
  165       -3.828758   1.000000
  166       -3.827152   1.000000
  167       -3.809587   1.000000
  168       -3.806256   1.000000
  169       -3.728357   1.000000
  170       -3.727285   1.000000
  171       -3.726505   1.000000
  172       -3.725958   1.000000
  173       -3.699843   1.000000
  174       -3.671773   1.000000
  175       -3.671450   1.000000
  176       -3.643918   1.000000
  177       -3.643629   1.000000
  178       -3.604786   1.000000
  179       -3.593671   1.000000
  180       -3.593013   1.000000
  181       -3.581839   1.000000
  182       -3.578735   1.000000
  183       -3.558035   1.000000
  184       -3.379009   1.000000
  185       -3.357269   1.000000
  186       -3.331338   1.000000
  187       -3.158247   1.000000
  188       -3.078984   1.000000
  189       -3.078183   1.000000
  190       -3.058697   1.000000
  191       -3.049760   1.000000
  192       -3.048947   1.000000
  193       -3.047658   1.000000
  194       -3.012780   1.000000
  195       -2.984302   1.000000
  196       -2.950771   1.000000
  197       -2.948385   1.000000
  198       -2.870142   1.000000
  199       -2.796090   1.000000
  200       -2.788195   1.000000
  201       -2.693733   1.000000
  202       -2.691314   1.000000
  203       -2.691017   1.000000
  204       -2.690433   1.000000
  205       -2.630167   1.000000
  206       -2.630003   1.000000
  207       -2.625835   1.000000
  208       -2.624581   1.000000
  209       -2.622898   1.000000
  210       -2.539531   1.000000
  211       -2.496217   1.000000
  212       -2.494931   1.000000
  213       -2.494314   1.000000
  214       -2.493390   1.000000
  215       -2.461400   1.000000
  216       -2.460496   1.000000
  217       -2.441919   1.000000
  218       -2.436662   1.000000
  219       -2.402008   1.000000
  220       -2.400501   1.000000
  221       -2.382996   1.000000
  222       -2.287530   1.000000
  223       -2.271910   1.000000
  224       -2.271659   1.000000
  225       -2.256279   1.000000
  226       -2.233395   1.000000
  227       -2.206214   1.000000
  228       -2.202849   1.000000
  229       -2.067482   1.000000
  230       -1.974329   1.000000
  231       -1.964902   1.000000
  232       -1.962012   1.000000
  233       -1.961261   1.000000
  234       -1.960533   1.000000
  235       -1.945434   1.000000
  236       -1.862491   1.000000
  237       -1.813334   1.000000
  238       -1.766018   1.000000
  239       -1.764538   1.000000
  240       -1.751425   1.000000
  241       -1.728539   1.000000
  242       -1.710766   1.000000
  243       -1.704459   1.000000
  244       -1.642983   1.000000
  245       -1.617233   1.000000
  246       -1.595461   1.000000
  247       -1.595358   1.000000
  248       -1.576383   1.000000
  249       -1.531938   1.000000
  250       -1.530856   1.000000
  251       -1.530230   1.000000
  252       -1.529839   1.000000
  253       -1.467779   1.000000
  254       -1.389474   1.000000
  255       -1.381790   1.000000
  256       -1.381278   1.000000
  257       -1.379658   1.000000
  258       -1.366229   1.000000
  259       -1.365425   1.000000
  260       -1.362860   1.000000
  261       -1.232858   0.999278
  262       -1.229573   0.999153
  263       -1.228664   0.999115
  264       -1.226083   0.998999
  265       -1.224585   0.998925
  266       -1.156632   0.982469
  267       -1.154396   0.981054
  268       -1.146084   0.974913
  269       -1.145249   0.974212
  270       -1.143396   0.972601
  271       -1.119354   0.942999
  272       -1.108871   0.923957
  273       -1.094239   0.889765
  274       -1.082722   0.855972
  275       -1.073216   0.823287
  276       -1.062717   0.782156
  277       -1.008530   0.505251
  278       -1.004237   0.481040
  279       -1.000743   0.461378
  280       -0.959176   0.246733
  281       -0.958464   0.243567
  282       -0.950754   0.210726
  283       -0.949877   0.207163
  284       -0.949085   0.203973
  285       -0.949047   0.203823
  286       -0.915522   0.096429
  287       -0.812052   0.002842
  288       -0.565175   0.000000
  289       -0.467622   0.000000
  290       -0.440714   0.000000
  291       -0.439370   0.000000
  292       -0.438845   0.000000
  293       -0.438457   0.000000
  294       -0.410272   0.000000
  295       -0.384165   0.000000
  296       -0.221912   0.000000
  297       -0.192811   0.000000
  298       -0.044565   0.000000
  299       -0.029215   0.000000
  300       -0.026007   0.000000
  301       -0.023118   0.000000
  302        0.085533   0.000000
  303        0.127574   0.000000
  304        0.173541   0.000000
  305        0.242246   0.000000
  306        0.659870   0.000000
  307        0.754291   0.000000
  308        1.002525   0.000000
  309        1.213037   0.000000
  310        1.259598   0.000000
  311        1.828596   0.000000
  312        1.891920   0.000000
  313        1.921109   0.000000
  314        2.132997   0.000000
  315        2.353142   0.000000
  316        2.373565   0.000000
  317        2.380794   0.000000
  318        2.492927   0.000000
  319        2.920471   0.000000
  320        2.975996   0.000000
  321        3.101636   0.000000
  322        3.504994   0.000000
  323        3.572039   0.000000
  324        3.590020   0.000000
  325        3.736258   0.000000
  326        3.839054   0.000000
  327        3.994774   0.000000
  328        4.065625   0.000000
  329        4.083460   0.000000
  330        4.140487   0.000000
  331        4.244763   0.000000
 
  0.2500000E+00  0.0000000E+00  0.0000000E+00  0.1666667E+00
    1      -25.410809   1.000000
    2      -24.760817   1.000000
    3      -22.668108   1.000000
    4      -22.405373   1.000000
    5      -22.282945   1.000000
    6      -22.096538   1.000000
    7      -21.807476   1.000000
    8      -21.546560   1.000000
    9      -21.154439   1.000000
   10      -21.103075   1.000000
   11      -21.040348   1.000000
   12      -20.580485   1.000000
   13      -20.423292   1.000000
   14      -20.135806   1.000000
   15      -19.992793   1.000000
   16      -19.740211   1.000000
   17      -19.442820   1.000000
   18      -18.308263   1.000000
   19      -17.816281   1.000000
   20      -17.527345   1.000000
   21      -17.454932   1.000000
   22      -17.304889   1.000000
   23      -16.796169   1.000000
   24      -16.584498   1.000000
   25      -13.072085   1.000000
   26      -12.457848   1.000000
   27      -12.236417   1.000000
   28      -12.017741   1.000000
   29      -10.483174   1.000000
   30      -10.306260   1.000000
   31       -9.919839   1.000000
   32       -9.859716   1.000000
   33       -9.626141   1.000000
   34       -9.559448   1.000000
   35       -9.272726   1.000000
   36       -9.066337   1.000000
   37       -8.972990   1.000000
   38       -8.824766   1.000000
   39       -8.631091   1.000000
   40       -8.461392   1.000000
   41       -8.344405   1.000000
   42       -8.149201   1.000000
   43       -8.147793   1.000000
   44       -8.139157   1.000000
   45       -8.051407   1.000000
   46       -7.894546   1.000000
   47       -7.814165   1.000000
   48       -7.782261   1.000000
   49       -7.695027   1.000000
   50       -7.437510   1.000000
   51       -7.437006   1.000000
   52       -7.408395   1.000000
   53       -7.406739   1.000000
   54       -7.351006   1.000000
   55       -7.310847   1.000000
   56       -7.178547   1.000000
   57       -7.156743   1.000000
   58       -7.156294   1.000000
   59       -7.090520   1.000000
   60       -6.987719   1.000000
   61       -6.965585   1.000000
   62       -6.926747   1.000000
   63       -6.884137   1.000000
   64       -6.752004   1.000000
   65       -6.750740   1.000000
   66       -6.709902   1.000000
   67       -6.709725   1.000000
   68       -6.679995   1.000000
   69       -6.603492   1.000000
   70       -6.603141   1.000000
   71       -6.586974   1.000000
   72       -6.563266   1.000000
   73       -6.493215   1.000000
   74       -6.493028   1.000000
   75       -6.446126   1.000000
   76       -6.405923   1.000000
   77       -6.383314   1.000000
   78       -6.350332   1.000000
   79       -6.349610   1.000000
   80       -6.296872   1.000000
   81       -6.272338   1.000000
   82       -6.257918   1.000000
   83       -6.257575   1.000000
   84       -6.233136   1.000000
   85       -6.208641   1.000000
   86       -6.059483   1.000000
   87       -5.937650   1.000000
   88       -5.926933   1.000000
   89       -5.925110   1.000000
   90       -5.873868   1.000000
   91       -5.848655   1.000000
   92       -5.747644   1.000000
   93       -5.691958   1.000000
   94       -5.691743   1.000000
   95       -5.691206   1.000000
   96       -5.684244   1.000000
   97       -5.654725   1.000000
   98       -5.639833   1.000000
   99       -5.595475   1.000000
  100       -5.578986   1.000000
  101       -5.578655   1.000000
  102       -5.460299   1.000000
  103       -5.408093   1.000000
  104       -5.357997   1.000000
  105       -5.355901   1.000000
  106       -5.321852   1.000000
  107       -5.309596   1.000000
  108       -5.273038   1.000000
  109       -5.272265   1.000000
  110       -5.210106   1.000000
  111       -5.194718   1.000000
  112       -5.135573   1.000000
  113       -5.119237   1.000000
  114       -5.105315   1.000000
  115       -5.102337   1.000000
  116       -5.102037   1.000000
  117       -5.101074   1.000000
  118       -5.063810   1.000000
  119       -5.003406   1.000000
  120       -4.950207   1.000000
  121       -4.883882   1.000000
  122       -4.862665   1.000000
  123       -4.800538   1.000000
  124       -4.784441   1.000000
  125       -4.740897   1.000000
  126       -4.739117   1.000000
  127       -4.721289   1.000000
  128       -4.672964   1.000000
  129       -4.668245   1.000000
  130       -4.666442   1.000000
  131       -4.664840   1.000000
  132       -4.614197   1.000000
  133       -4.584770   1.000000
  134       -4.564361   1.000000
  135       -4.534758   1.000000
  136       -4.533988   1.000000
  137       -4.488640   1.000000
  138       -4.467339   1.000000
  139       -4.466950   1.000000
  140       -4.433079   1.000000
  141       -4.404754   1.000000
  142       -4.372237   1.000000
  143       -4.364871   1.000000
  144       -4.340780   1.000000
  145       -4.300248   1.000000
  146       -4.297816   1.000000
  147       -4.283912   1.000000
  148       -4.280320   1.000000
  149       -4.265266   1.000000
  150       -4.209063   1.000000
  151       -4.204689   1.000000
  152       -4.200786   1.000000
  153       -4.190836   1.000000
  154       -4.130716   1.000000
  155       -4.073536   1.000000
  156       -4.072602   1.000000
  157       -4.064695   1.000000
  158       -4.054754   1.000000
  159       -4.034405   1.000000
  160       -4.033774   1.000000
  161       -3.984747   1.000000
  162       -3.980376   1.000000
  163       -3.954331   1.000000
  164       -3.903441   1.000000
  165       -3.888279   1.000000
  166       -3.886055   1.000000
  167       -3.883007   1.000000
  168       -3.797263   1.000000
  169       -3.792350   1.000000
  170       -3.735446   1.000000
  171       -3.721979   1.000000
  172       -3.720628   1.000000
  173       -3.709820   1.000000
  174       -3.696279   1.000000
  175       -3.695277   1.000000
  176       -3.644974   1.000000
  177       -3.610789   1.000000
  178       -3.548960   1.000000
  179       -3.521872   1.000000
  180       -3.487044   1.000000
  181       -3.483793   1.000000
  182       -3.417410   1.000000
  183       -3.415338   1.000000
  184       -3.408157   1.000000
  185       -3.406138   1.000000
  186       -3.398391   1.000000
  187       -3.396835   1.000000
  188       -3.395839   1.000000
  189       -3.393225   1.000000
  190       -3.324105   1.000000
  191       -3.201615   1.000000
  192       -3.144098   1.000000
  193       -3.079909   1.000000
  194       -3.076775   1.000000
  195       -3.014535   1.000000
  196       -2.983583   1.000000
  197       -2.841378   1.000000
  198       -2.834086   1.000000
  199       -2.819312   1.000000
  200       -2.745530   1.000000
  201       -2.728625   1.000000
  202       -2.724325   1.000000
  203       -2.672064   1.000000
  204       -2.669292   1.000000
  205       -2.665902   1.000000
  206       -2.658736   1.000000
  207       -2.629631   1.000000
  208       -2.607767   1.000000
  209       -2.563143   1.000000
  210       -2.553251   1.000000
  211       -2.530557   1.000000
  212       -2.527206   1.000000
  213       -2.519634   1.000000
  214       -2.499367   1.000000
  215       -2.478013   1.000000
  216       -2.476675   1.000000
  217       -2.469725   1.000000
  218       -2.373157   1.000000
  219       -2.370710   1.000000
  220       -2.366871   1.000000
  221       -2.317304   1.000000
  222       -2.307623   1.000000
  223       -2.260498   1.000000
  224       -2.259058   1.000000
  225       -2.258095   1.000000
  226       -2.233797   1.000000
  227       -2.217049   1.000000
  228       -2.116405   1.000000
  229       -2.109553   1.000000
  230       -2.107941   1.000000
  231       -2.066346   1.000000
  232       -2.007820   1.000000
  233       -1.962866   1.000000
  234       -1.898164   1.000000
  235       -1.897920   1.000000
  236       -1.865474   1.000000
  237       -1.863969   1.000000
  238       -1.798927   1.000000
  239       -1.769119   1.000000
  240       -1.767249   1.000000
  241       -1.764485   1.000000
  242       -1.699647   1.000000
  243       -1.603935   1.000000
  244       -1.566117   1.000000
  245       -1.537882   1.000000
  246       -1.530088   1.000000
  247       -1.472018   1.000000
  248       -1.430372   1.000000
  249       -1.413880   1.000000
  250       -1.403917   1.000000
  251       -1.394767   1.000000
  252       -1.392644   1.000000
  253       -1.377053   1.000000
  254       -1.362916   1.000000
  255       -1.348972   0.999999
  256       -1.300642   0.999983
  257       -1.294830   0.999976
  258       -1.278382   0.999936
  259       -1.277521   0.999933
  260       -1.262066   0.999840
  261       -1.243371   0.999572
  262       -1.220552   0.998701
  263       -1.207729   0.997675
  264       -1.175492   0.991210
  265       -1.168145   0.988410
  266       -1.133790   0.962838
  267       -1.133270   0.962238
  268       -1.120459   0.944765
  269       -1.118876   0.942222
  270       -1.115580   0.936630
  271       -1.104522   0.914765
  272       -1.075433   0.831300
  273       -1.070924   0.814755
  274       -1.061485   0.776991
  275       -1.043608   0.694711
  276       -1.026415   0.604919
  277       -1.004975   0.485202
  278       -0.969117   0.293147
  279       -0.950537   0.209842
  280       -0.930804   0.138728
  281       -0.920268   0.108406
  282       -0.884386   0.040711
  283       -0.861714   0.019551
  284       -0.861320   0.019287
  285       -0.838666   0.008445
  286       -0.835843   0.007570
  287       -0.701707   0.000008
  288       -0.701230   0.000007
  289       -0.683195   0.000002
  290       -0.632265   0.000000
  291       -0.619212   0.000000
  292       -0.585693   0.000000
  293       -0.378158   0.000000
  294       -0.214122   0.000000
  295       -0.206297   0.000000
  296       -0.074277   0.000000
  297       -0.070944   0.000000
  298        0.019741   0.000000
  299        0.139368   0.000000
  300        0.192346   0.000000
  301        0.246680   0.000000
  302        0.456845   0.000000
  303        0.621644   0.000000
  304        0.672704   0.000000
  305        0.682741   0.000000
  306        0.803880   0.000000
  307        0.898411   0.000000
  308        1.024814   0.000000
  309        1.201842   0.000000
  310        1.643686   0.000000
  311        1.760342   0.000000
  312        1.958740   0.000000
  313        2.211184   0.000000
  314        2.307098   0.000000
  315        2.399918   0.000000
  316        2.503350   0.000000
  317        2.735402   0.000000
  318        2.743868   0.000000
  319        2.818798   0.000000
  320        2.868503   0.000000
  321        3.030943   0.000000
  322        3.084568   0.000000
  323        3.295695   0.000000
  324        3.526243   0.000000
  325        3.563433   0.000000
  326        3.604812   0.000000
  327        3.626883   0.000000
  328        3.725584   0.000000
  329        3.795499   0.000000
  330        3.887554   0.000000
  331        4.010629   0.000000
 
  0.5000000E+00  0.0000000E+00  0.0000000E+00  0.8333333E-01
    1      -25.410934   1.000000
    2      -24.760913   1.000000
    3      -22.673267   1.000000
    4      -22.398414   1.000000
    5      -22.279355   1.000000
    6      -22.103269   1.000000
    7      -21.807358   1.000000
    8      -21.546833   1.000000
    9      -21.154411   1.000000
   10      -21.103172   1.000000
   11      -21.040439   1.000000
   12      -20.580683   1.000000
   13      -20.422909   1.000000
   14      -20.137285   1.000000
   15      -19.991974   1.000000
   16      -19.739517   1.000000
   17      -19.442845   1.000000
   18      -18.308646   1.000000
   19      -17.816384   1.000000
   20      -17.527439   1.000000
   21      -17.455720   1.000000
   22      -17.305628   1.000000
   23      -16.796225   1.000000
   24      -16.584579   1.000000
   25      -13.072441   1.000000
   26      -12.458354   1.000000
   27      -12.235333   1.000000
   28      -12.016558   1.000000
   29      -10.507653   1.000000
   30      -10.270265   1.000000
   31       -9.848949   1.000000
   32       -9.630224   1.000000
   33       -9.559355   1.000000
   34       -9.401743   1.000000
   35       -9.400754   1.000000
   36       -9.273295   1.000000
   37       -9.059493   1.000000
   38       -8.980468   1.000000
   39       -8.824785   1.000000
   40       -8.502324   1.000000
   41       -8.385519   1.000000
   42       -8.048773   1.000000
   43       -7.897554   1.000000
   44       -7.781964   1.000000
   45       -7.758922   1.000000
   46       -7.755926   1.000000
   47       -7.755806   1.000000
   48       -7.755283   1.000000
   49       -7.698634   1.000000
   50       -7.634145   1.000000
   51       -7.629158   1.000000
   52       -7.494512   1.000000
   53       -7.490192   1.000000
   54       -7.487228   1.000000
   55       -7.241434   1.000000
   56       -7.241020   1.000000
   57       -7.217510   1.000000
   58       -7.215283   1.000000
   59       -7.067967   1.000000
   60       -6.897335   1.000000
   61       -6.884898   1.000000
   62       -6.821828   1.000000
   63       -6.821202   1.000000
   64       -6.760639   1.000000
   65       -6.760426   1.000000
   66       -6.744417   1.000000
   67       -6.743786   1.000000
   68       -6.660527   1.000000
   69       -6.614009   1.000000
   70       -6.613761   1.000000
   71       -6.501424   1.000000
   72       -6.501061   1.000000
   73       -6.488857   1.000000
   74       -6.488486   1.000000
   75       -6.488302   1.000000
   76       -6.488052   1.000000
   77       -6.440562   1.000000
   78       -6.440078   1.000000
   79       -6.409280   1.000000
   80       -6.408610   1.000000
   81       -6.246389   1.000000
   82       -6.059566   1.000000
   83       -5.978578   1.000000
   84       -5.978305   1.000000
   85       -5.977976   1.000000
   86       -5.977405   1.000000
   87       -5.933998   1.000000
   88       -5.931769   1.000000
   89       -5.931283   1.000000
   90       -5.870879   1.000000
   91       -5.862814   1.000000
   92       -5.861606   1.000000
   93       -5.843484   1.000000
   94       -5.758661   1.000000
   95       -5.758037   1.000000
   96       -5.757611   1.000000
   97       -5.757226   1.000000
   98       -5.671515   1.000000
   99       -5.590457   1.000000
  100       -5.523005   1.000000
  101       -5.522888   1.000000
  102       -5.426836   1.000000
  103       -5.323595   1.000000
  104       -5.273314   1.000000
  105       -5.222533   1.000000
  106       -5.221009   1.000000
  107       -5.203345   1.000000
  108       -5.202419   1.000000
  109       -5.202099   1.000000
  110       -5.201210   1.000000
  111       -5.180502   1.000000
  112       -5.180118   1.000000
  113       -5.173504   1.000000
  114       -5.125963   1.000000
  115       -5.124289   1.000000
  116       -5.122352   1.000000
  117       -5.057941   1.000000
  118       -5.056964   1.000000
  119       -5.012675   1.000000
  120       -4.963502   1.000000
  121       -4.963347   1.000000
  122       -4.937053   1.000000
  123       -4.936263   1.000000
  124       -4.935460   1.000000
  125       -4.934851   1.000000
  126       -4.844089   1.000000
  127       -4.777502   1.000000
  128       -4.777271   1.000000
  129       -4.759890   1.000000
  130       -4.739176   1.000000
  131       -4.738320   1.000000
  132       -4.685416   1.000000
  133       -4.685055   1.000000
  134       -4.650433   1.000000
  135       -4.621040   1.000000
  136       -4.619439   1.000000
  137       -4.618523   1.000000
  138       -4.608194   1.000000
  139       -4.547167   1.000000
  140       -4.545665   1.000000
  141       -4.510799   1.000000
  142       -4.509429   1.000000
  143       -4.508926   1.000000
  144       -4.507949   1.000000
  145       -4.504015   1.000000
  146       -4.474286   1.000000
  147       -4.473874   1.000000
  148       -4.397948   1.000000
  149       -4.363890   1.000000
  150       -4.261687   1.000000
  151       -4.160488   1.000000
  152       -4.159760   1.000000
  153       -4.112143   1.000000
  154       -4.111762   1.000000
  155       -4.079504   1.000000
  156       -4.047007   1.000000
  157       -4.046839   1.000000
  158       -4.006319   1.000000
  159       -4.002028   1.000000
  160       -3.997941   1.000000
  161       -3.997385   1.000000
  162       -3.976546   1.000000
  163       -3.975797   1.000000
  164       -3.944042   1.000000
  165       -3.797791   1.000000
  166       -3.797524   1.000000
  167       -3.774176   1.000000
  168       -3.773541   1.000000
  169       -3.757992   1.000000
  170       -3.755351   1.000000
  171       -3.752797   1.000000
  172       -3.660476   1.000000
  173       -3.659992   1.000000
  174       -3.642873   1.000000
  175       -3.642719   1.000000
  176       -3.642235   1.000000
  177       -3.641976   1.000000
  178       -3.615639   1.000000
  179       -3.585886   1.000000
  180       -3.583023   1.000000
  181       -3.581385   1.000000
  182       -3.580902   1.000000
  183       -3.537503   1.000000
  184       -3.431834   1.000000
  185       -3.370992   1.000000
  186       -3.369896   1.000000
  187       -3.359838   1.000000
  188       -3.356152   1.000000
  189       -3.319065   1.000000
  190       -3.128977   1.000000
  191       -3.089902   1.000000
  192       -3.088137   1.000000
  193       -3.031005   1.000000
  194       -2.979446   1.000000
  195       -2.968805   1.000000
  196       -2.957046   1.000000
  197       -2.953384   1.000000
  198       -2.947103   1.000000
  199       -2.946581   1.000000
  200       -2.944298   1.000000
  201       -2.830435   1.000000
  202       -2.716808   1.000000
  203       -2.715624   1.000000
  204       -2.705127   1.000000
  205       -2.704022   1.000000
  206       -2.618820   1.000000
  207       -2.617605   1.000000
  208       -2.573153   1.000000
  209       -2.535676   1.000000
  210       -2.534692   1.000000
  211       -2.521815   1.000000
  212       -2.521623   1.000000
  213       -2.502669   1.000000
  214       -2.447990   1.000000
  215       -2.437164   1.000000
  216       -2.435973   1.000000
  217       -2.435432   1.000000
  218       -2.387501   1.000000
  219       -2.386758   1.000000
  220       -2.381728   1.000000
  221       -2.289470   1.000000
  222       -2.287901   1.000000
  223       -2.284363   1.000000
  224       -2.269744   1.000000
  225       -2.258041   1.000000
  226       -2.255331   1.000000
  227       -2.230284   1.000000
  228       -2.212714   1.000000
  229       -2.209504   1.000000
  230       -2.209136   1.000000
  231       -2.199693   1.000000
  232       -2.153402   1.000000
  233       -2.033918   1.000000
  234       -1.987082   1.000000
  235       -1.923099   1.000000