       N       E                     dE             d eps       ncg     rms          rms(c)
DAV:   1     0.368291419036E+04    0.36829E+04   -0.21137E+05  4754   0.115E+03
DAV:   2    -0.914975552361E+02   -0.37744E+04   -0.35757E+04  5764   0.280E+02
DAV:   3    -0.524827677025E+03   -0.43333E+03   -0.41195E+03  5468   0.974E+01
DAV:   4    -0.541426058205E+03   -0.16598E+02   -0.16231E+02  5780   0.191E+01
DAV:   5    -0.541995190256E+03   -0.56913E+00   -0.56746E+00  6500   0.314E+00    0.719E+01
DAV:   6    -0.296193744896E+04   -0.24199E+04   -0.12951E+04  7075   0.800E+01    0.309E+02
DAV:   7    -0.138590551294E+04    0.15760E+04   -0.15560E+03  5251   0.527E+01    0.199E+02
DAV:   8    -0.297135205450E+03    0.10888E+04   -0.61745E+03  6452   0.425E+01    0.685E+01
DAV:   9    -0.614622788921E+03   -0.31749E+03   -0.26259E+03  6316   0.720E+01    0.100E+02
DAV:  10    -0.497011401879E+03    0.11761E+03   -0.36196E+02  6116   0.321E+01    0.448E+01
DAV:  11    -0.494945589642E+03    0.20658E+01   -0.99775E+01  6068   0.202E+01    0.479E+01
DAV:  12    -0.511171999898E+03   -0.16226E+02   -0.44768E+01  5756   0.223E+01    0.497E+01
DAV:  13    -0.491630618891E+03    0.19541E+02   -0.13719E+01  5836   0.144E+01    0.340E+01
DAV:  14    -0.492221960810E+03   -0.59134E+00   -0.18523E+01  5908   0.979E+00    0.301E+01
DAV:  15    -0.493496764020E+03   -0.12748E+01   -0.40595E+00  6148   0.344E+00    0.295E+01
DAV:  16    -0.496433495250E+03   -0.29367E+01   -0.39461E+00  6348   0.321E+00    0.295E+01
DAV:  17    -0.495914745995E+03    0.51875E+00   -0.20366E+00  5988   0.325E+00    0.261E+01
DAV:  18    -0.496534357098E+03   -0.61961E+00   -0.20922E+00  5556   0.320E+00    0.241E+01
DAV:  19    -0.493642239964E+03    0.28921E+01   -0.22725E+00  6332   0.268E+00    0.217E+01
DAV:  20    -0.492256812880E+03    0.13854E+01   -0.48431E-01  5500   0.108E+00    0.206E+01
DAV:  21    -0.492464559111E+03   -0.20775E+00   -0.80703E-01  5692   0.115E+00    0.200E+01
DAV:  22    -0.488022318681E+03    0.44422E+01   -0.46483E+00  6548   0.282E+00    0.248E+01
DAV:  23    -0.487296223803E+03    0.72609E+00   -0.20903E+00  5404   0.890E-01    0.167E+01
DAV:  24    -0.486853712763E+03    0.44251E+00   -0.38898E-01  5828   0.842E-01    0.171E+01
DAV:  25    -0.484547713700E+03    0.23060E+01   -0.26352E+00  6732   0.151E+00    0.201E+01
DAV:  26    -0.483573654860E+03    0.97406E+00   -0.29004E-01  5316   0.813E-01    0.193E+01
DAV:  27    -0.482379824618E+03    0.11938E+01   -0.50515E-01  6340   0.859E-01    0.144E+01
DAV:  28    -0.481475684266E+03    0.90414E+00   -0.26139E-01  6268   0.864E-01    0.121E+01
DAV:  29    -0.480473173826E+03    0.10025E+01   -0.32465E-01  6372   0.110E+00    0.107E+01
DAV:  30    -0.479246676440E+03    0.12265E+01   -0.33616E-01  6100   0.144E+00    0.106E+01
DAV:  31    -0.477626108645E+03    0.16206E+01   -0.89252E-01  6348   0.149E+00    0.118E+01
DAV:  32    -0.476840209266E+03    0.78590E+00   -0.25125E-01  5708   0.915E-01    0.994E+00
DAV:  33    -0.476426675814E+03    0.41353E+00   -0.65503E-02  5868   0.529E-01    0.920E+00
DAV:  34    -0.474813520902E+03    0.16132E+01   -0.14882E+00  6620   0.158E+00    0.110E+01
DAV:  35    -0.474275073669E+03    0.53845E+00   -0.24685E-01  5444   0.782E-01    0.899E+00
DAV:  36    -0.474207540926E+03    0.67533E-01   -0.30154E-02  5452   0.242E-01    0.877E+00
DAV:  37    -0.473650080897E+03    0.55746E+00   -0.88250E-02  6020   0.628E-01    0.702E+00
DAV:  38    -0.472882645628E+03    0.76744E+00   -0.32305E-01  6460   0.109E+00    0.497E+00
DAV:  39    -0.472647018723E+03    0.23563E+00   -0.16012E-01  5244   0.656E-01    0.458E+00
DAV:  40    -0.472651390151E+03   -0.43714E-02   -0.19016E-02  5116   0.179E-01    0.441E+00
DAV:  41    -0.472615822402E+03    0.35568E-01   -0.21969E-03  5388   0.772E-02    0.416E+00
DAV:  42    -0.472494907012E+03    0.12092E+00   -0.24298E-01  5900   0.494E-01    0.785E+00
DAV:  43    -0.472311953264E+03    0.18295E+00   -0.39327E-02  5316   0.342E-01    0.712E+00
DAV:  44    -0.472285044581E+03    0.26909E-01   -0.38165E-02  6196   0.214E-01    0.757E+00
DAV:  45    -0.472205228457E+03    0.79816E-01   -0.41675E-02  5620   0.307E-01    0.630E+00
DAV:  46    -0.472111887966E+03    0.93340E-01   -0.24332E-02  5924   0.286E-01    0.551E+00
DAV:  47    -0.472024173954E+03    0.87714E-01   -0.40033E-02  5980   0.330E-01    0.421E+00
DAV:  48    -0.471960049627E+03    0.64124E-01   -0.45274E-02  6172   0.427E-01    0.514E+00
DAV:  49    -0.471940426746E+03    0.19623E-01   -0.17209E-02  5084   0.180E-01    0.471E+00
DAV:  50    -0.471887431075E+03    0.52996E-01   -0.22280E-02  6972   0.268E-01    0.300E+00
DAV:  51    -0.471880657497E+03    0.67736E-02   -0.12711E-01  6588   0.592E-01    0.378E+00
DAV:  52    -0.471881725974E+03   -0.10685E-02   -0.24756E-02  4844   0.189E-01    0.377E+00
DAV:  53    -0.471866866233E+03    0.14860E-01   -0.30449E-03  5692   0.764E-02    0.320E+00
DAV:  54    -0.471850848923E+03    0.16017E-01   -0.18747E-02  5980   0.122E-01    0.189E+00
DAV:  55    -0.471850205041E+03    0.64388E-03   -0.10917E-02  5532   0.132E-01    0.104E+00
DAV:  56    -0.471851493828E+03   -0.12888E-02   -0.59192E-03  5164   0.116E-01    0.601E-01
DAV:  57    -0.471851591329E+03   -0.97500E-04   -0.22862E-03  5036   0.989E-02    0.503E-01
DAV:  58    -0.471851491461E+03    0.99867E-04   -0.14084E-03  5372   0.772E-02    0.542E-01
DAV:  59    -0.471850696821E+03    0.79464E-03   -0.90424E-04  4876   0.687E-02    0.486E-01
DAV:  60    -0.471849983232E+03    0.71359E-03   -0.10477E-03  5228   0.572E-02    0.419E-01
DAV:  61    -0.471849913893E+03    0.69338E-04   -0.63901E-04  5652   0.506E-02
   1 F= -.50142211E+03 E0= -.50111806E+03  d E =-.608105E+00
