 vasp.5.4.4.18Apr17-6-g9f103f2a35 (build Feb 25 2019 10:51:38) complex          
  
 executed on             LinuxIFC date 2019.08.03  06:56:12
 running on   16 total cores
 distrk:  each k-point on   16 cores,    1 groups
 distr:  one band on NCORES_PER_BAND=  16 cores,    1 groups


--------------------------------------------------------------------------------------------------------


 INCAR:
 POTCAR:    PAW_PBE H 15Jun2001                   
 POTCAR:    PAW_PBE O 08Apr2002                   
 POTCAR:    PAW_PBE Pt 04Feb2005                  

 ----------------------------------------------------------------------------- 
|                                                                             |
|           W    W    AA    RRRRR   N    N  II  N    N   GGGG   !!!           |
|           W    W   A  A   R    R  NN   N  II  NN   N  G    G  !!!           |
|           W    W  A    A  R    R  N N  N  II  N N  N  G       !!!           |
|           W WW W  AAAAAA  RRRRR   N  N N  II  N  N N  G  GGG   !            |
|           WW  WW  A    A  R   R   N   NN  II  N   NN  G    G                |
|           W    W  A    A  R    R  N    N  II  N    N   GGGG   !!!           |
|                                                                             |
|      For optimal performance we recommend to set                            |
|        NCORE= 4 - approx SQRT( number of cores)                             |
|      NCORE specifies how many cores store one orbital (NPAR=cpu/NCORE).     |
|      This setting can  greatly improve the performance of VASP for DFT.     |
|      The default,   NCORE=1            might be grossly inefficient         |
|      on modern multi-core architectures or massively parallel machines.     |
|      Do your own testing !!!!                                               |
|      Unfortunately you need to use the default for GW and RPA calculations. |
|      (for HF NCORE is supported but not extensively tested yet)             |
|                                                                             |
 ----------------------------------------------------------------------------- 

 POTCAR:    PAW_PBE H 15Jun2001                   
   VRHFIN =H: ultrasoft test                                                    
   LEXCH  = PE                                                                  
   EATOM  =    12.4884 eV,    0.9179 Ry                                         
                                                                                
   TITEL  = PAW_PBE H 15Jun2001                                                 
   LULTRA =        F    use ultrasoft PP ?                                      
   IUNSCR =        0    unscreen: 0-lin 1-nonlin 2-no                           
   RPACOR =    0.000    partial core radius                                     
   POMASS =    1.000; ZVAL   =    1.000    mass and valenz                      
   RCORE  =    1.100    outmost cutoff radius                                   
   RWIGS  =    0.700; RWIGS  =    0.370    wigner-seitz radius (au A)           
   ENMAX  =  250.000; ENMIN  =  200.000 eV                                      
   RCLOC  =    0.701    cutoff for local pot                                    
   LCOR   =        T    correct aug charges                                     
   LPAW   =        T    paw PP                                                  
   EAUG   =  400.000                                                            
   RMAX   =    1.123    core radius for proj-oper                               
   RAUG   =    1.200    factor for augmentation sphere                          
   RDEP   =    1.112    radius for radial grids                                 
   RDEPT  =    0.926    core radius for aug-charge                              
                                                                                
   Atomic configuration                                                         
    2 entries                                                                   
     n  l   j            E        occ.                                          
     1  0  0.50        -6.4927   1.0000                                         
     2  1  0.50        -3.4015   0.0000                                         
   Description                                                                  
     l       E           TYP  RCUT    TYP  RCUT                                 
     0     -6.4927494     23  1.100                                             
     0      6.8029130     23  1.100                                             
     1     -4.0817478     23  1.100                                             
  local pseudopotential read in
  atomic valenz-charges read in
  non local Contribution for L=           0  read in
    real space projection operators read in
  non local Contribution for L=           0  read in
    real space projection operators read in
  non local Contribution for L=           1  read in
    real space projection operators read in
    PAW grid and wavefunctions read in
 
   number of l-projection  operators is LMAX  =           3
   number of lm-projection operators is LMMAX =           5
 
 POTCAR:    PAW_PBE O 08Apr2002                   
   VRHFIN =O: s2p4                                                              
   LEXCH  = PE                                                                  
   EATOM  =   432.3788 eV,   31.7789 Ry                                         
                                                                                
   TITEL  = PAW_PBE O 08Apr2002                                                 
   LULTRA =        F    use ultrasoft PP ?                                      
   IUNSCR =        1    unscreen: 0-lin 1-nonlin 2-no                           
   RPACOR =    1.200    partial core radius                                     
   POMASS =   16.000; ZVAL   =    6.000    mass and valenz                      
   RCORE  =    1.520    outmost cutoff radius                                   
   RWIGS  =    1.550; RWIGS  =    0.820    wigner-seitz radius (au A)           
   ENMAX  =  400.000; ENMIN  =  300.000 eV                                      
   ICORE  =        2    local potential                                         
   LCOR   =        T    correct aug charges                                     
   LPAW   =        T    paw PP                                                  
   EAUG   =  605.392                                                            
   DEXC   =    0.000                                                            
   RMAX   =    1.553    core radius for proj-oper                               
   RAUG   =    1.300    factor for augmentation sphere                          
   RDEP   =    1.550    radius for radial grids                                 
   RDEPT  =    1.329    core radius for aug-charge                              
                                                                                
   Atomic configuration                                                         
    4 entries                                                                   
     n  l   j            E        occ.                                          
     1  0  0.50      -514.6923   2.0000                                         
     2  0  0.50       -23.9615   2.0000                                         
     2  1  0.50        -9.0305   4.0000                                         
     3  2  1.50        -9.5241   0.0000                                         
   Description                                                                  
     l       E           TYP  RCUT    TYP  RCUT                                 
     0    -23.9615318     23  1.200                                             
     0     -9.5240782     23  1.200                                             
     1     -9.0304911     23  1.520                                             
     1      8.1634956     23  1.520                                             
     2     -9.5240782      7  1.500                                             
  local pseudopotential read in
  partial core-charges read in
  partial kinetic energy density read in
  kinetic energy density of atom read in
  atomic valenz-charges read in
  non local Contribution for L=           0  read in
    real space projection operators read in
  non local Contribution for L=           0  read in
    real space projection operators read in
  non local Contribution for L=           1  read in
    real space projection operators read in
  non local Contribution for L=           1  read in
    real space projection operators read in
    PAW grid and wavefunctions read in
 
   number of l-projection  operators is LMAX  =           4
   number of lm-projection operators is LMMAX =           8
 
 POTCAR:    PAW_PBE Pt 04Feb2005                  
   VRHFIN =Pt: s1d9                                                             
   LEXCH  = PE                                                                  
   EATOM  =   729.1176 eV,   53.5886 Ry                                         
                                                                                
   TITEL  = PAW_PBE Pt 04Feb2005                                                
   LULTRA =        F    use ultrasoft PP ?                                      
   IUNSCR =        1    unscreen: 0-lin 1-nonlin 2-no                           
   RPACOR =    2.330    partial core radius                                     
   POMASS =  195.080; ZVAL   =   10.000    mass and valenz                      
   RCORE  =    2.600    outmost cutoff radius                                   
   RWIGS  =    2.750; RWIGS  =    1.455    wigner-seitz radius (au A)           
   ENMAX  =  230.283; ENMIN  =  172.712 eV                                      
   ICORE  =        3    local potential                                         
   LCOR   =        T    correct aug charges                                     
   LPAW   =        T    paw PP                                                  
   EAUG   =  358.966                                                            
   DEXC   =    0.000                                                            
   RMAX   =    2.658    core radius for proj-oper                               
   RAUG   =    1.300    factor for augmentation sphere                          
   RDEP   =    2.761    radius for radial grids                                 
   RDEPT  =    2.203    core radius for aug-charge                              
                                                                                
   Atomic configuration                                                         
   16 entries                                                                   
     n  l   j            E        occ.                                          
     1  0  0.50    -78401.1885   2.0000                                         
     2  0  0.50    -13770.7750   2.0000                                         
     2  1  1.50    -11931.0468   6.0000                                         
     3  0  0.50     -3234.7234   2.0000                                         
     3  1  1.50     -2699.2216   6.0000                                         
     3  2  2.50     -2119.5714  10.0000                                         
     4  0  0.50      -695.1528   2.0000                                         
     4  1  1.50      -519.6034   6.0000                                         
     4  2  2.50      -306.6786  10.0000                                         
     4  3  3.50       -70.1041  14.0000                                         
     5  0  0.50      -101.7747   2.0000                                         
     5  1  1.50       -55.9873   6.0000                                         
     5  2  2.50        -6.1423   9.0000                                         
     6  0  0.50        -5.6573   1.0000                                         
     6  1  1.50        -6.8029   0.0000                                         
     5  3  2.50        -1.3606   0.0000                                         
   Description                                                                  
     l       E           TYP  RCUT    TYP  RCUT                                 
     2     -6.1423404     23  2.500                                             
     2     -7.5029230     23  2.500                                             
     0     -5.6573207     23  2.500                                             
     0      0.7416693     23  2.500                                             
     1     -2.7211652     23  2.600                                             
     1     20.4087390     23  2.600                                             
     3     -1.3605826     23  2.500                                             
  local pseudopotential read in
  partial core-charges read in
  partial kinetic energy density read in
  atomic valenz-charges read in
  non local Contribution for L=           2  read in
    real space projection operators read in
  non local Contribution for L=           2  read in
    real space projection operators read in
  non local Contribution for L=           0  read in
    real space projection operators read in
  non local Contribution for L=           0  read in
    real space projection operators read in
  non local Contribution for L=           1  read in
    real space projection operators read in
  non local Contribution for L=           1  read in
    real space projection operators read in
    PAW grid and wavefunctions read in
 
   number of l-projection  operators is LMAX  =           6
   number of lm-projection operators is LMMAX =          18
 
 Optimization of the real space projectors (new method)

 maximal supplied QI-value         = 34.20
 optimisation between [QCUT,QGAM] = [  9.92, 20.18] = [ 27.55,114.04] Ry 
 Optimized for a Real-space Cutoff    1.26 Angstroem

   l    n(q)    QCUT    max X(q) W(low)/X(q) W(high)/X(q)  e(spline) 
   0      8     9.919    19.460    0.50E-03    0.23E-03    0.29E-06
   0      8     9.919    12.209    0.48E-03    0.23E-03    0.28E-06
   1      7     9.919     4.655    0.17E-03    0.75E-03    0.30E-06
 Optimization of the real space projectors (new method)

 maximal supplied QI-value         = 24.76
 optimisation between [QCUT,QGAM] = [ 10.15, 20.30] = [ 28.85,115.39] Ry 
 Optimized for a Real-space Cutoff    1.38 Angstroem

   l    n(q)    QCUT    max X(q) W(low)/X(q) W(high)/X(q)  e(spline) 
   0      8    10.150    20.381    0.22E-03    0.32E-03    0.29E-06
   0      8    10.150    15.268    0.23E-03    0.35E-03    0.30E-06
   1      8    10.150     5.964    0.46E-03    0.53E-03    0.21E-06
   1      8    10.150     5.382    0.38E-03    0.45E-03    0.19E-06
 Optimization of the real space projectors (new method)

 maximal supplied QI-value         = 14.36
 optimisation between [QCUT,QGAM] = [ 10.20, 20.39] = [ 29.12,116.47] Ry 
 Optimized for a Real-space Cutoff    1.51 Angstroem

   l    n(q)    QCUT    max X(q) W(low)/X(q) W(high)/X(q)  e(spline) 
   2      8    10.197    66.195    0.45E-03    0.45E-03    0.14E-06
   2      8    10.197    64.643    0.46E-03    0.46E-03    0.14E-06
   0      9    10.197    95.520    0.15E-03    0.11E-03    0.54E-07
   0      9    10.197    63.403    0.15E-03    0.11E-03    0.52E-07
   1      9    10.197    19.961    0.13E-03    0.17E-03    0.77E-07
   1      9    10.197    13.289    0.10E-03    0.15E-03    0.67E-07

 ----------------------------------------------------------------------------- 
|                                                                             |
|  ADVICE TO THIS USER RUNNING 'VASP/VAMP'   (HEAR YOUR MASTER'S VOICE ...):  |
|                                                                             |
|      You enforced a specific xc-type in the INCAR file,                     |
|      a different type was found on the POTCAR file                          |
|          I HOPE YOU KNOW, WHAT YOU ARE  DOING                               |
|                                                                             |
 ----------------------------------------------------------------------------- 

  PAW_PBE H 15Jun2001                   :
 energy of atom  1       EATOM=  -12.4884
 kinetic energy error for atom=    0.0098 (will be added to EATOM!!)
  PAW_PBE O 08Apr2002                   :
 energy of atom  2       EATOM= -432.3788
 kinetic energy error for atom=    0.1156 (will be added to EATOM!!)
  PAW_PBE Pt 04Feb2005                  :
 energy of atom  3       EATOM= -729.1176
 kinetic energy error for atom=    0.0056 (will be added to EATOM!!)
 
 
 POSCAR:  H  O Pt                                
  positions in cartesian coordinates
  No initial velocities read in
 exchange correlation table for  LEXCH =        9
   RHO(1)=    0.500       N(1)  =     2000
   RHO(2)=  100.500       N(2)  =     4000

 VTST: version 3.2, (02/03/18)

 CHAIN: initializing optimizer
 
 OPT: Using VASP Dynamics algorithm
 CHAIN: Read ICHAIN            0
 
 POSCAR:  H  O Pt                                
  positions in cartesian coordinates
  No initial velocities read in
 


--------------------------------------------------------------------------------------------------------


 ion  position               nearest neighbor table
   1  0.888  0.255  0.496-  52 1.27
   2  0.139  0.325  0.493-  49 0.97
   3  0.480  0.494  0.502-  50 0.99
   4  0.724  0.035  0.503-
   5  0.164  0.070  0.493-
   6  0.274  0.005  0.453-  63 1.30
   7  0.775  0.224  0.548-  52 0.98
   8  0.714  0.309  0.509-  52 0.97
   9  0.008  0.186  0.643-
  10  0.976  0.174  0.503-  49 1.24
  11  0.458  0.475  0.610-  54 0.99
  12  0.564  0.475  0.570-  54 0.99
  13  0.175  0.398  0.624-  55 0.99
  14  0.135  0.060  0.621-  67 1.28
  15  0.685  0.138  0.608-  56 1.04  66 1.23
  16  0.683  0.303  0.608-  56 0.99
  17  0.142  0.139  0.722-
  18  0.086  0.190  0.781-  53 1.18
  19  0.499  0.466  0.726-  58 0.99
  20  0.846  0.986  0.749-
  21  0.214  0.396  0.721-  71 1.00
  22  0.270  0.882  0.683-  59 1.00  69 1.35
  23  0.760  0.216  0.781-  60 0.97
  24  0.712  0.303  0.742-  60 1.00
  25  0.889  0.762  0.495-  64 1.30
  26  0.138  0.832  0.493-  61 0.99
  27  0.461  0.088  0.492-  62 1.35  63 1.36
  28  0.647  0.567  0.509-  50 0.98
  29  0.208  0.590  0.488-  51 0.99
  30  0.272  0.507  0.452-  51 0.98
  31  0.775  0.731  0.548-  64 0.98
  32  0.714  0.819  0.509-  64 1.04
  33  0.005  0.689  0.641-
  34  0.975  0.681  0.503-  61 1.25
  35  0.456  0.075  0.610-  66 0.97
  36  0.563  0.075  0.570-  66 1.01  62 1.39
  37  0.180  0.890  0.624-
  38  0.176  0.563  0.623-  55 0.98
  39  0.684  0.644  0.608-  68 0.99
  40  0.682  0.810  0.608-  68 0.99
  41  0.143  0.645  0.723-
  42  0.087  0.697  0.781-  65 1.17
  43  0.515  0.056  0.729-  70 1.16
  44  0.661  0.547  0.734-  58 0.98
  45  0.162  0.013  0.727-
  46  0.271  0.482  0.684-  71 0.99
  47  0.760  0.723  0.781-  72 0.97
  48  0.712  0.809  0.742-  72 0.99
  49  0.095  0.233  0.488-   2 0.97  10 1.24
  50  0.589  0.480  0.513-  28 0.98   3 0.99
  51  0.269  0.505  0.482-  30 0.98  29 0.99
  52  0.768  0.226  0.518-   8 0.97   7 0.98   1 1.27
  53  0.143  0.256  0.754-  18 1.18
  54  0.571  0.474  0.600-  12 0.99  11 0.99
  55  0.243  0.481  0.628-  38 0.98  13 0.99
  56  0.757  0.225  0.603-  16 0.99  15 1.04
  57  0.134  0.298  0.686-
  58  0.615  0.455  0.731-  44 0.98  19 0.99
  59  0.330  0.866  0.709-  22 1.00  69 1.87
  60  0.770  0.217  0.751-  23 0.97  24 1.00
  61  0.098  0.737  0.488-  26 0.99  34 1.25
  62  0.530  0.108  0.529-  27 1.35  36 1.39
  63  0.314  0.111  0.475-   6 1.30  27 1.36
  64  0.767  0.727  0.518-  31 0.98  32 1.04  25 1.30
  65  0.145  0.762  0.754-  42 1.17
  66  0.566  0.067  0.600-  35 0.97  36 1.01  15 1.23
  67  0.280  0.090  0.630-  14 1.28
  68  0.751  0.727  0.603-  39 0.99  40 0.99
  69  0.134  0.808  0.688-  22 1.35  59 1.87
  70  0.413  0.119  0.713-  43 1.16
  71  0.273  0.483  0.714-  46 0.99  21 1.00
  72  0.768  0.724  0.751-  47 0.97  48 0.99
  73  0.167  0.083  0.219-  74 2.78  77 2.78  83 2.78  82 2.78  76 2.78  75 2.78  94 2.78  86 2.78
                            85 2.78
  74  0.500  0.083  0.219-  73 2.78  75 2.78  77 2.78  78 2.78  83 2.78  84 2.78  95 2.78  87 2.78
                            86 2.78
  75  0.833  0.083  0.219-  74 2.78  78 2.78  84 2.78  82 2.78  76 2.78  73 2.78  96 2.78  87 2.78
                            85 2.78
  76  0.000  0.333  0.219-  77 2.78  78 2.78  73 2.78  75 2.78  79 2.78  81 2.78  85 2.78  88 2.78
                            90 2.78
  77  0.333  0.333  0.219-  76 2.78  73 2.78  79 2.78  74 2.78  80 2.78  78 2.78  86 2.78  88 2.78
                            89 2.78
  78  0.667  0.333  0.219-  76 2.78  75 2.78  81 2.78  80 2.78  74 2.78  77 2.78  87 2.78  90 2.78
                            89 2.78
  79  0.167  0.583  0.219-  80 2.78  77 2.78  83 2.78  82 2.78  76 2.78  81 2.78  88 2.78  92 2.78
                            91 2.78
  80  0.500  0.583  0.219-  79 2.78  81 2.78  77 2.78  78 2.78  83 2.78  84 2.78  89 2.78  92 2.78
                            93 2.78
  81  0.833  0.583  0.219-  80 2.78  78 2.78  84 2.78  82 2.78  76 2.78  79 2.78  90 2.78  93 2.78
                            91 2.78
  82  0.000  0.833  0.219-  83 2.78  84 2.78  79 2.78  81 2.78  73 2.78  75 2.78  91 2.78  94 2.78
                            96 2.78
  83  0.333  0.833  0.219-  82 2.78  79 2.78  73 2.78  80 2.78  74 2.78  84 2.78  92 2.78  94 2.78
                            95 2.78
  84  0.667  0.833  0.219-  82 2.78  81 2.78  75 2.78  74 2.78  80 2.78  83 2.78  93 2.78  96 2.78
                            95 2.78
  85  0.000  0.167  0.289- 100 2.78 102 2.78  97 2.78  87 2.78  86 2.78  96 2.78  88 2.78  90 2.78
                            94 2.78  76 2.78  73 2.78  75 2.78
  86  0.333  0.167  0.289- 100 2.78 101 2.78  98 2.78  85 2.78  94 2.78  88 2.78  95 2.78  89 2.78
                            87 2.78  77 2.78  73 2.78  74 2.78
  87  0.667  0.167  0.289- 102 2.78 101 2.78  99 2.78  85 2.78  96 2.78  90 2.78  89 2.78  95 2.78
                            86 2.78  78 2.78  75 2.78  74 2.78
  88  0.167  0.417  0.289- 104 2.78 103 2.78 100 2.78  89 2.78  92 2.78  86 2.78  85 2.78  91 2.78
                            90 2.78  79 2.78  77 2.78  76 2.78
  89  0.500  0.417  0.289- 104 2.78 105 2.78 101 2.78  90 2.78  88 2.78  93 2.78  86 2.78  87 2.78
                            92 2.78  80 2.78  77 2.78  78 2.78
  90  0.833  0.417  0.289- 105 2.78 103 2.78 102 2.78  89 2.78  93 2.78  87 2.78  85 2.78  91 2.78
                            88 2.78  81 2.78  78 2.78  76 2.78
  91  0.000  0.667  0.289- 106 2.78 108 2.78 103 2.78  93 2.78  92 2.78  96 2.78  88 2.78  90 2.78
                            94 2.78  82 2.78  79 2.78  81 2.78
  92  0.333  0.667  0.289- 106 2.78 107 2.78 104 2.78  91 2.78  94 2.78  88 2.78  95 2.78  89 2.78
                            93 2.78  83 2.78  79 2.78  80 2.78
  93  0.667  0.667  0.289- 108 2.78 107 2.78 105 2.78  91 2.78  96 2.78  90 2.78  89 2.78  95 2.78
                            92 2.78  84 2.78  81 2.78  80 2.78
  94  0.167  0.917  0.289-  98 2.78  97 2.78 106 2.78  95 2.78  86 2.78  92 2.78  91 2.78  85 2.78
                            96 2.78  73 2.78  83 2.78  82 2.78
  95  0.500  0.917  0.289-  98 2.78  99 2.78 107 2.78  96 2.78  94 2.78  87 2.78  92 2.78  93 2.78
                            86 2.78  74 2.78  84 2.78  83 2.78
  96  0.833  0.917  0.289-  99 2.78  97 2.78 108 2.78  95 2.78  87 2.78  93 2.78  91 2.78  85 2.78
                            94 2.78  75 2.78  84 2.78  82 2.78
  97  0.000  0.000  0.359-  94 2.78  96 2.78  85 2.78  98 2.78  99 2.78 100 2.78 102 2.78 106 2.78
                           108 2.78
  98  0.333  0.000  0.359-  94 2.78  95 2.78  86 2.78  97 2.78 100 2.78 106 2.78 101 2.78 107 2.78
                            99 2.78
  99  0.667  0.000  0.359-  96 2.78  95 2.78  87 2.78  97 2.78 102 2.78 108 2.78 107 2.78 101 2.78
                            98 2.78
 100  0.167  0.250  0.359-  86 2.78  85 2.78  88 2.78 101 2.78  98 2.78 104 2.78 103 2.78  97 2.78
                           102 2.78
 101  0.500  0.250  0.359-  86 2.78  87 2.78  89 2.78 100 2.78 102 2.78  98 2.78  99 2.78 104 2.78
                           105 2.78
 102  0.833  0.250  0.359-  87 2.78  85 2.78  90 2.78 101 2.78  99 2.78 105 2.78 103 2.78  97 2.78
                           100 2.78
 103  0.000  0.500  0.359-  88 2.78  90 2.78  91 2.78 104 2.78 105 2.78 100 2.78 102 2.78 106 2.78
                           108 2.78
 104  0.333  0.500  0.359-  88 2.78  89 2.78  92 2.78 103 2.78 100 2.78 106 2.78 101 2.78 107 2.78
                           105 2.78
 105  0.667  0.500  0.359-  90 2.78  89 2.78  93 2.78 103 2.78 102 2.78 108 2.78 107 2.78 101 2.78
                           104 2.78
 106  0.167  0.750  0.359-  92 2.78  91 2.78  94 2.78 107 2.78 104 2.78  98 2.78  97 2.78 103 2.78
                           108 2.78
 107  0.500  0.750  0.359-  92 2.78  93 2.78  95 2.78 106 2.78 108 2.78 104 2.78 105 2.78  98 2.78
                            99 2.78
 108  0.833  0.750  0.359-  93 2.78  91 2.78  96 2.78 107 2.78 105 2.78  99 2.78  97 2.78 103 2.78
                           106 2.78
 
  LATTYP: Found a simple orthorhombic cell.
 ALAT       =     8.3458886400
 B/A-ratio  =     1.1547005389
 C/A-ratio  =     3.8992763699
  
  Lattice vectors:
  
 A1 = (   8.3458886400,   0.0000000000,   0.0000000000)
 A2 = (   0.0000000000,   9.6370021100,   0.0000000000)
 A3 = (   0.0000000000,   0.0000000000,  32.5429263600)


Analysis of symmetry for initial positions (statically):
=====================================================================
 Subroutine PRICEL returns:
 Original cell was already a primitive cell.
 

 Routine SETGRP: Setting up the symmetry group for a 
 simple orthorhombic supercell.


 Subroutine GETGRP returns: Found  1 space group operations
 (whereof  1 operations were pure point group operations)
 out of a pool of  8 trial point group operations.


The static configuration has the point symmetry C_1 .


Analysis of symmetry for dynamics (positions and initial velocities):
=====================================================================
 Subroutine PRICEL returns:
 Original cell was already a primitive cell.
 

 Routine SETGRP: Setting up the symmetry group for a 
 simple orthorhombic supercell.


 Subroutine GETGRP returns: Found  1 space group operations
 (whereof  1 operations were pure point group operations)
 out of a pool of  8 trial point group operations.


The dynamic configuration has the point symmetry C_1 .


Analysis of constrained symmetry for selective dynamics:
=====================================================================
 Subroutine PRICEL returns:
 Original cell was already a primitive cell.
 

 Routine SETGRP: Setting up the symmetry group for a 
 simple orthorhombic supercell.


 Subroutine GETGRP returns: Found  1 space group operations
 (whereof  1 operations were pure point group operations)
 out of a pool of  8 trial point group operations.


The constrained configuration has the point symmetry C_1 .


 Subroutine INISYM returns: Found  1 space group operations
 (whereof  1 operations are pure point group operations),
 and found     1 'primitive' translations

 
 
 KPOINTS: automatic                               

Automatic generation of k-mesh.
Space group operators:
 irot       det(A)        alpha          n_x          n_y          n_z        tau_x        tau_y        tau_z
    1     1.000000     0.000001     1.000000     0.000000     0.000000     0.000000     0.000000     0.000000
 
 Subroutine IBZKPT returns following result:
 ===========================================
 
 Found      7 irreducible k-points:
 
 Following reciprocal coordinates:
            Coordinates               Weight
  0.000000  0.000000  0.000000      1.000000
  0.250000  0.000000  0.000000      2.000000
  0.500000  0.000000  0.000000      1.000000
  0.000000  0.333333  0.000000      2.000000
  0.250000  0.333333  0.000000      2.000000
  0.500000  0.333333  0.000000      2.000000
 -0.250000  0.333333  0.000000      2.000000
 
 Following cartesian coordinates:
            Coordinates               Weight
  0.000000  0.000000  0.000000      1.000000
  0.029955  0.000000  0.000000      2.000000
  0.059910  0.000000  0.000000      1.000000
  0.000000  0.034589  0.000000      2.000000
  0.029955  0.034589  0.000000      2.000000
  0.059910  0.034589  0.000000      2.000000
 -0.029955  0.034589  0.000000      2.000000
 


--------------------------------------------------------------------------------------------------------




 Dimension of arrays:
   k-points           NKPTS =      7   k-points in BZ     NKDIM =      7   number of bands    NBANDS=    331
   number of dos      NEDOS =    301   number of ions     NIONS =    108
   non local maximal  LDIM  =      6   non local SUM 2l+1 LMDIM =     18
   total plane-waves  NPLWV = 322560
   max r-space proj   IRMAX =   1822   max aug-charges    IRDMAX=   7663
   dimension x,y,z NGX =    42 NGY =   48 NGZ =  160
   dimension x,y,z NGXF=    84 NGYF=   96 NGZF=  320
   support grid    NGXF=    84 NGYF=   96 NGZF=  320
   ions per type =              48  24  36
   NGX,Y,Z   is equivalent  to a cutoff of   8.37,  8.28,  8.17 a.u.
   NGXF,Y,Z  is equivalent  to a cutoff of  16.73, 16.56, 16.35 a.u.

 SYSTEM =  CuH2O                                   
 POSCAR =   H  O Pt                                

 Startparameter for this run:
   NWRITE =      2    write-flag & timer
   PREC   = normal    normal or accurate (medium, high low for compatibility)
   ISTART =      0    job   : 0-new  1-cont  2-samecut
   ICHARG =      2    charge: 1-file 2-atom 10-const
   ISPIN  =      1    spin polarized calculation?
   LNONCOLLINEAR =      F non collinear calculations
   LSORBIT =      F    spin-orbit coupling
   INIWAV =      1    electr: 0-lowe 1-rand  2-diag
   LASPH  =      F    aspherical Exc in radial PAW
   METAGGA=      F    non-selfconsistent MetaGGA calc.

 Electronic Relaxation 1
   ENCUT  =  400.0 eV  29.40 Ry    5.42 a.u.  13.61 15.72 53.07*2*pi/ulx,y,z
   ENINI  =  400.0     initial cutoff
   ENAUG  =  605.4 eV  augmentation charge cutoff
   NELM   =    200;   NELMIN=  2; NELMDL= -5     # of ELM steps 
   EDIFF  = 0.1E-03   stopping-criterion for ELM
   LREAL  =      T    real-space projection
   NLSPLINE    = F    spline interpolate recip. space projectors
   LCOMPAT=      F    compatible to vasp.4.4
   GGA_COMPAT  = T    GGA compatible to vasp.4.4-vasp.4.6
   LMAXPAW     = -100 max onsite density
   LMAXMIX     =    2 max onsite mixed and CHGCAR
   VOSKOWN=      0    Vosko Wilk Nusair interpolation
   ROPT   =   -0.00050  -0.00050  -0.00050
 Ionic relaxation
   EDIFFG = 0.0E+00   stopping-criterion for IOM
   NSW    =      0    number of steps for IOM
   NBLOCK =      1;   KBLOCK =      1    inner block; outer block 
   IBRION =     -1    ionic relax: 0-MD 1-quasi-New 2-CG
   NFREE  =      0    steps in history (QN), initial steepest desc. (CG)
   ISIF   =      2    stress and relaxation
   IWAVPR =     10    prediction:  0-non 1-charg 2-wave 3-comb
   ISYM   =      2    0-nonsym 1-usesym 2-fastsym
   LCORR  =      T    Harris-Foulkes like correction to forces

   POTIM  = 0.5000    time-step for ionic-motion
   TEIN   =    0.0    initial temperature
   TEBEG  =    0.0;   TEEND  =   0.0 temperature during run
   SMASS  =  -3.00    Nose mass-parameter (am)
   estimated Nose-frequenzy (Omega)   =  0.10E-29 period in steps =****** mass=  -0.159E-26a.u.
   SCALEE = 1.0000    scale energy and forces
   NPACO  =    256;   APACO  = 16.0  distance and # of slots for P.C.
   PSTRESS=    0.0 pullay stress

  Mass of Ions in am
   POMASS =   1.00 16.00195.08
  Ionic Valenz
   ZVAL   =   1.00  6.00 10.00
  Atomic Wigner-Seitz radii
   RWIGS  =  -1.00 -1.00 -1.00
  virtual crystal weights 
   VCA    =   1.00  1.00  1.00
   NELECT =     552.0000    total number of electrons
   NUPDOWN=      -1.0000    fix difference up-down

 DOS related values:
   EMIN   =  10.00;   EMAX   =-10.00  energy-range for DOS
   EFERMI =   0.00
   ISMEAR =     0;   SIGMA  =   0.10  broadening in eV -4-tet -1-fermi 0-gaus

 Electronic relaxation 2 (details)
   IALGO  =     38    algorithm
   LDIAG  =      T    sub-space diagonalisation (order eigenvalues)
   LSUBROT=      F    optimize rotation matrix (better conditioning)
   TURBO    =      0    0=normal 1=particle mesh
   IRESTART =      0    0=no restart 2=restart with 2 vectors
   NREBOOT  =      0    no. of reboots
   NMIN     =      0    reboot dimension
   EREF     =   0.00    reference energy to select bands
   IMIX   =      4    mixing-type and parameters
     AMIX     =   0.40;   BMIX     =  1.00
     AMIX_MAG =   1.60;   BMIX_MAG =  1.00
     AMIN     =   0.10
     WC   =   100.;   INIMIX=   1;  MIXPRE=   1;  MAXMIX= -45

 Intra band minimization:
   WEIMIN = 0.0000     energy-eigenvalue tresh-hold
   EBREAK =  0.00E+00  absolut break condition
   DEPER  =   0.30     relativ break condition  

   TIME   =   0.40     timestep for ELM

  volume/ion in A,a.u.               =      24.24       163.55
  Fermi-wavevector in a.u.,A,eV,Ry     =   0.974460  1.841463 12.919723  0.949573
  Thomas-Fermi vector in A             =   2.104922
 
 Write flags
   LWAVE        =      F    write WAVECAR
   LDOWNSAMPLE  =      F    k-point downsampling of WAVECAR
   LCHARG       =      F    write CHGCAR
   LVTOT        =      F    write LOCPOT, total local potential
   LVHAR        =      T    write LOCPOT, Hartree potential only
   LELF         =      F    write electronic localiz. function (ELF)
   LORBIT       =      0    0 simple, 1 ext, 2 COOP (PROOUT), +10 PAW based schemes


 Dipole corrections
   LMONO  =      F    monopole corrections only (constant potential shift)
   LDIPOL =      T    correct potential (dipole corrections)
   IDIPOL =      3    1-x, 2-y, 3-z, 4-all directions 
   EPSILON=  1.0000000 bulk dielectric constant

 Exchange correlation treatment:
   GGA     =    RP    GGA type
   LEXCH   =     9    internal setting for exchange type
   VOSKOWN=      0    Vosko Wilk Nusair interpolation
   LHFCALC =     F    Hartree Fock is set to
   LHFONE  =     F    Hartree Fock one center treatment
   AEXX    =    0.0000 exact exchange contribution

 Linear response parameters
   LEPSILON=     F    determine dielectric tensor
   LRPA    =     F    only Hartree local field effects (RPA)
   LNABLA  =     F    use nabla operator in PAW spheres
   LVEL    =     F    velocity operator in full k-point grid
   LINTERFAST=   F  fast interpolation
   KINTER  =     0    interpolate to denser k-point grid
   CSHIFT  =0.1000    complex shift for real part using Kramers Kronig
   OMEGAMAX=  -1.0    maximum frequency
   DEG_THRESHOLD= 0.2000000E-02 threshold for treating states as degnerate
   RTIME   =   -0.100 relaxation time in fs
  (WPLASMAI=    0.000 imaginary part of plasma frequency in eV, 0.658/RTIME)
   DFIELD  = 0.0000000 0.0000000 0.0000000 field for delta impulse in time
 
 Orbital magnetization related:
   ORBITALMAG=     F  switch on orbital magnetization
   LCHIMAG   =     F  perturbation theory with respect to B field
   DQ        =  0.001000  dq finite difference perturbation B field
   LLRAUG    =     F  two centre corrections for induced B field



--------------------------------------------------------------------------------------------------------


 Static calculation
 charge density and potential will be updated during run
 non-spin polarized calculation
 Variant of blocked Davidson
 Davidson routine will perform the subspace rotation
 perform sub-space diagonalisation
    after iterative eigenvector-optimisation
 modified Broyden-mixing scheme, WC =      100.0
 initial mixing is a Kerker type mixing with AMIX =  0.4000 and BMIX =      1.0000
 Hartree-type preconditioning will be used
 using additional bands           55
 real space projection scheme for non local part
 use partial core corrections
 calculate Harris-corrections to forces 
   (improved forces if not selfconsistent)
 use gradient corrections 
 use of overlap-Matrix (Vanderbilt PP)
 Gauss-broadening in eV      SIGMA  =   0.10


--------------------------------------------------------------------------------------------------------


  energy-cutoff  :      400.00
  volume of cell :     2617.41
      direct lattice vectors                 reciprocal lattice vectors
     8.345888640  0.000000000  0.000000000     0.119819476  0.000000000  0.000000000
     0.000000000  9.637002110  0.000000000     0.000000000  0.103766710  0.000000000
     0.000000000  0.000000000 32.542926360     0.000000000  0.000000000  0.030728644

  length of vectors
     8.345888640  9.637002110 32.542926360     0.119819476  0.103766710  0.030728644


 
 k-points in units of 2pi/SCALE and weight: automatic                               
   0.00000000  0.00000000  0.00000000       0.083
   0.02995487  0.00000000  0.00000000       0.167
   0.05990974  0.00000000  0.00000000       0.083
   0.00000000  0.03458890  0.00000000       0.167
   0.02995487  0.03458890  0.00000000       0.167
   0.05990974  0.03458890  0.00000000       0.167
  -0.02995487  0.03458890  0.00000000       0.167
 
 k-points in reciprocal lattice and weights: automatic                               
   0.00000000  0.00000000  0.00000000       0.083
   0.25000000  0.00000000  0.00000000       0.167
   0.50000000  0.00000000  0.00000000       0.083
   0.00000000  0.33333333  0.00000000       0.167
   0.25000000  0.33333333  0.00000000       0.167
   0.50000000  0.33333333  0.00000000       0.167
  -0.25000000  0.33333333  0.00000000       0.167
 
 position of ions in fractional coordinates (direct lattice) 
   0.88819913  0.25519689  0.49554789
   0.13893692  0.32478006  0.49276188
   0.48008136  0.49361145  0.50160803
   0.72398628  0.03530633  0.50337270
   0.16435832  0.06952922  0.49330892
   0.27396297  0.00497456  0.45258100
   0.77506020  0.22390831  0.54807091
   0.71356446  0.30935126  0.50932166
   0.00826878  0.18614954  0.64299855
   0.97581070  0.17440149  0.50271615
   0.45813395  0.47476897  0.60996893
   0.56422917  0.47471351  0.57012460
   0.17495878  0.39848533  0.62352628
   0.13527348  0.05999926  0.62052729
   0.68461730  0.13843514  0.60812568
   0.68315189  0.30253153  0.60827643
   0.14232198  0.13879974  0.72243163
   0.08643328  0.18999023  0.78089344
   0.49889247  0.46605956  0.72625816
   0.84644013  0.98560164  0.74879916
   0.21356153  0.39580279  0.72141319
   0.27042086  0.88241815  0.68306175
   0.76029185  0.21592771  0.78083577
   0.71229798  0.30308456  0.74240864
   0.88886613  0.76204308  0.49546342
   0.13839195  0.83207279  0.49286177
   0.46058085  0.08813360  0.49181850
   0.64673520  0.56701486  0.50903279
   0.20756211  0.59008676  0.48845286
   0.27175725  0.50651762  0.45162263
   0.77540454  0.73105150  0.54805236
   0.71353934  0.81948542  0.50904672
   0.00547551  0.68914140  0.64117947
   0.97527615  0.68123584  0.50269113
   0.45644945  0.07459665  0.61012139
   0.56337557  0.07497412  0.56960043
   0.18004588  0.89030348  0.62389276
   0.17584498  0.56281860  0.62331588
   0.68399009  0.64420677  0.60786039
   0.68248813  0.80964201  0.60826435
   0.14347312  0.64498656  0.72250771
   0.08711711  0.69686556  0.78089017
   0.51536635  0.05601434  0.72868662
   0.66057367  0.54741147  0.73423476
   0.16191548  0.01323682  0.72742535
   0.27095283  0.48152163  0.68397254
   0.76027712  0.72291126  0.78085364
   0.71190309  0.80921084  0.74243049
   0.09468779  0.23329609  0.48770028
   0.58923355  0.47973289  0.51314732
   0.26929141  0.50511750  0.48175541
   0.76806585  0.22603208  0.51808252
   0.14340761  0.25607308  0.75420478
   0.57063887  0.47369536  0.60040692
   0.24337804  0.48082851  0.62762375
   0.75735696  0.22496081  0.60303055
   0.13431433  0.29750847  0.68591857
   0.61507701  0.45478486  0.73068634
   0.33028884  0.86574698  0.70914706
   0.76968095  0.21705757  0.75121925
   0.09764549  0.73682700  0.48768350
   0.52973886  0.10803687  0.52877670
   0.31407253  0.11119197  0.47521594
   0.76721623  0.72671733  0.51811397
   0.14453352  0.76214952  0.75431124
   0.56643076  0.06705689  0.60047980
   0.27997786  0.09002353  0.63010144
   0.75105172  0.72735037  0.60301989
   0.13400398  0.80787695  0.68758282
   0.41320618  0.11851599  0.71343903
   0.27337655  0.48277814  0.71442627
   0.76796344  0.72379009  0.75098538
   0.16666667  0.08333333  0.21910656
   0.50000000  0.08333333  0.21910656
   0.83333333  0.08333333  0.21910656
   0.00000000  0.33333333  0.21910656
   0.33333333  0.33333333  0.21910656
   0.66666667  0.33333333  0.21910656
   0.16666667  0.58333333  0.21910656
   0.50000000  0.58333333  0.21910656
   0.83333333  0.58333333  0.21910656
   0.00000000  0.83333333  0.21910656
   0.33333333  0.83333333  0.21910656
   0.66666667  0.83333333  0.21910656
   0.00000000  0.16666667  0.28890555
   0.33333333  0.16666667  0.28890555
   0.66666667  0.16666667  0.28890555
   0.16666667  0.41666667  0.28890555
   0.50000000  0.41666667  0.28890555
   0.83333333  0.41666667  0.28890555
   0.00000000  0.66666667  0.28890555
   0.33333333  0.66666667  0.28890555
   0.66666667  0.66666667  0.28890555
   0.16666667  0.91666667  0.28890555
   0.50000000  0.91666667  0.28890555
   0.83333333  0.91666667  0.28890555
   0.00000000  0.00000000  0.35870453
   0.33333333  0.00000000  0.35870453
   0.66666667  0.00000000  0.35870453
   0.16666667  0.25000000  0.35870453
   0.50000000  0.25000000  0.35870453
   0.83333333  0.25000000  0.35870453
   0.00000000  0.50000000  0.35870453
   0.33333333  0.50000000  0.35870453
   0.66666667  0.50000000  0.35870453
   0.16666667  0.75000000  0.35870453
   0.50000000  0.75000000  0.35870453
   0.83333333  0.75000000  0.35870453
 
 position of ions in cartesian coordinates  (Angst):
   7.41281103  2.45933297 16.12657849
   1.15955206  3.12990612 16.03591357
   4.00670557  4.75693459 16.32379318
   6.04230887  0.34024718 16.38122071
   1.37171624  0.67005324 16.05371586
   2.28646444  0.04793985 14.72831015
   6.46856612  2.15780486 17.83583126
   5.95532952  2.98121875 16.57481727
   0.06901032  1.79392351 20.92505446
   8.14400744  1.68070753 16.35985465
   3.82353493  4.57534957 19.85017397
   4.70899382  4.57481510 18.55352287
   1.46018649  3.84020397 20.29136981
   1.12897740  0.57821300 20.19377390
   5.71373975  1.33409974 19.79018922
   5.70150960  2.91549699 19.79509507
   1.18780340  1.33761339 23.51003934
   0.72136253  1.83093625 25.41255771
   4.16370100  4.49141696 23.63456582
   7.06429507  9.49824508 24.36811592
   1.78236075  3.81435232 23.47689632
   2.25690238  8.50386557 22.22882823
   6.34531111  2.08089580 25.41068096
   5.94475962  2.92082654 24.16014970
   7.41837774  7.34381077 16.12382959
   1.15500380  8.01868723 16.03916429
   3.84395648  0.84934369 16.00521323
   5.39757996  5.46432340 16.56541660
   1.73229026  5.68666735 15.89568545
   2.26805575  4.88131137 14.69712199
   6.47143994  7.04514485 17.83522759
   5.95511987  7.89738272 16.56586992
   0.04569800  6.64125713 20.86585628
   8.13954614  6.56507123 16.35904043
   3.80947628  0.71888807 19.85513547
   4.70186977  0.72252575 18.53646485
   1.50264286  8.57985652 20.30329615
   1.46758262  5.42388404 20.28452278
   5.70850512  6.20822200 19.78155591
   5.69596993  7.80252176 19.79470195
   1.19741068  6.21573684 23.51251520
   0.72706970  6.71569487 25.41245130
   4.30119017  0.53981031 23.71359501
   5.51307429  5.27540549 23.89414773
   1.35132857  0.12756326 23.67254960
   2.26134215  4.64042496 22.25846800
   6.34518818  6.96669734 25.41126250
   5.94146391  7.79836657 24.16086076
   0.79025375  2.24827491 15.87119430
   4.91767759  4.62318687 16.69931545
   2.24747612  4.86781841 15.67773083
   6.41019205  2.17827163 16.85992130
   1.19686394  2.46777681 24.54403062
   4.76248846  4.56500318 19.53899818
   2.03120602  4.63374537 20.42471348
   6.32081685  2.16794780 19.62437878
   1.12097244  2.86708975 22.32179751
   5.13336423  4.38276266 23.77867175
   2.75655388  8.34320547 23.07772055
   6.42367150  2.09178426 24.44687273
   0.81493839  7.10080335 15.87064823
   4.42114153  1.04115154 17.20794121
   2.62121436  1.07155725 15.46491734
   6.40310122  7.00337644 16.86094477
   1.20626066  7.34483653 24.54749514
   4.72736805  0.64622739 19.54136991
   2.33666404  0.86755695 20.50534476
   6.26819402  7.00947705 19.62403187
   1.11838229  7.78551187 22.37595708
   3.44857276  1.14213885 23.21739382
   2.28157024  4.65253395 23.24952149
   6.40933735  6.97516662 24.43926192
   1.39098147  0.80308348  7.13036865
   4.17294432  0.80308348  7.13036865
   6.95490717  0.80308348  7.13036865
   0.00000000  3.21233400  7.13036865
   2.78196285  3.21233400  7.13036865
   5.56392579  3.21233400  7.13036865
   1.39098147  5.62158453  7.13036865
   4.17294432  5.62158453  7.13036865
   6.95490717  5.62158453  7.13036865
   0.00000000  8.03083506  7.13036865
   2.78196285  8.03083506  7.13036865
   5.56392579  8.03083506  7.13036865
   0.00000000  1.60616705  9.40183204
   2.78196285  1.60616705  9.40183204
   5.56392579  1.60616705  9.40183204
   1.39098147  4.01541758  9.40183204
   4.17294432  4.01541758  9.40183204
   6.95490717  4.01541758  9.40183204
   0.00000000  6.42466811  9.40183204
   2.78196285  6.42466811  9.40183204
   5.56392579  6.42466811  9.40183204
   1.39098147  8.83391863  9.40183204
   4.17294432  8.83391863  9.40183204
   6.95490717  8.83391863  9.40183204
   0.00000000  0.00000000 11.67329510
   2.78196285  0.00000000 11.67329510
   5.56392579  0.00000000 11.67329510
   1.39098147  2.40925053 11.67329510
   4.17294432  2.40925053 11.67329510
   6.95490717  2.40925053 11.67329510
   0.00000000  4.81850105 11.67329510
   2.78196285  4.81850105 11.67329510
   5.56392579  4.81850105 11.67329510
   1.39098147  7.22775158 11.67329510
   4.17294432  7.22775158 11.67329510
   6.95490717  7.22775158 11.67329510
 


--------------------------------------------------------------------------------------------------------


 k-point  1 :   0.0000 0.0000 0.0000  plane waves:   47615
 k-point  2 :   0.2500 0.0000 0.0000  plane waves:   47511
 k-point  3 :   0.5000 0.0000 0.0000  plane waves:   47600
 k-point  4 :   0.0000 0.3333 0.0000  plane waves:   47504
 k-point  5 :   0.2500 0.3333 0.0000  plane waves:   47550
 k-point  6 :   0.5000 0.3333 0.0000  plane waves:   47452
 k-point  7 :  -0.2500 0.3333 0.0000  plane waves:   47550

 maximum and minimum number of plane-waves per node :      3000     2944

 maximum number of plane-waves:     47615
 maximum index in each direction: 
   IXMAX=   13   IYMAX=   15   IZMAX=   53
   IXMIN=  -14   IYMIN=  -16   IZMIN=  -53


 real space projection operators:
  total allocation   :      12657.87 KBytes
  max/ min on nodes  :        918.28        607.81


 parallel 3D FFT for wavefunctions:
    minimum data exchange during FFTs selected (reduces bandwidth)
 parallel 3D FFT for charge:
    minimum data exchange during FFTs selected (reduces bandwidth)


 total amount of memory used by VASP MPI-rank0   167272. kBytes
=======================================================================

   base      :      30000. kBytes
   nonlr-proj:       4378. kBytes
   fftplans  :       6719. kBytes
   grid      :      12775. kBytes
   one-center:        108. kBytes
   wavefun   :     113292. kBytes
 
     INWAV:  cpu time    0.0000: real time    0.0002
 Broyden mixing: mesh for mixing (old mesh)
   NGX = 27   NGY = 31   NGZ =107
  (NGX  = 84   NGY  = 96   NGZ  =320)
  gives a total of  89559 points

 initial charge density was supplied:
 charge density of overlapping atoms calculated
 number of electron     552.0000000 magnetization 
 keeping initial charge density in first step


--------------------------------------------------------------------------------------------------------


 Maximum index for non-local projection operator          177
 Maximum index for augmentation-charges          854 (set IRDMAX)


--------------------------------------------------------------------------------------------------------


 First call to EWALD:  gamma=   0.129
 Maximum number of real-space cells 4x 4x 1
 Maximum number of reciprocal cells 2x 2x 6

    FEWALD:  cpu time    0.0057: real time    0.0057


--------------------------------------- Iteration      1(   1)  ---------------------------------------


    POTLOK:  cpu time    0.1331: real time    0.1393
    SETDIJ:  cpu time    0.0151: real time    0.0169
     EDDAV:  cpu time   26.9094: real time   26.9602
       DOS:  cpu time    0.0065: real time    0.0066
    --------------------------------------------
      LOOP:  cpu time   27.0642: real time   27.1229

 eigenvalue-minimisations  :  4754
 total energy-change (2. order) : 0.3682914E+04  (-0.2113657E+05)
 number of electron     552.0000000 magnetization 
 augmentation part      552.0000000 magnetization 

 DIPCOR: dipole corrections for dipol
 direction  3 min pos     1,
 dipolmoment           0.000000      0.000000     -0.000259 electrons x Angstroem
 Tr[quadrupol]     -7676.195442

 energy correction for charged system         0.000000 eV
 dipol+quadrupol energy correction           -0.000000 eV
 added-field ion interaction         -0.030975 eV  (added to PSCEN)


 Free energy of the ion-electron system (eV)
  ---------------------------------------------------
  alpha Z        PSCENC =       863.55601046
  Ewald energy   TEWEN  =    164004.65450766
  -Hartree energ DENC   =   -200915.66602860
  -exchange      EXHF   =         0.00000000
  -V(xc)+E(xc)   XCENC  =       872.45889287
  PAW double counting   =     33505.36643195   -32489.60540758
  entropy T*S    EENTRO =        -0.12444036
  eigenvalues    EBANDS =       648.32210348
  atomic energy  EATOM  =     37193.95212048
  Solvation  Ediel_sol  =         0.00000000
  ---------------------------------------------------
  free energy    TOTEN  =      3682.91419036 eV

  energy without entropy =     3683.03863072  energy(sigma->0) =     3682.97641054


--------------------------------------------------------------------------------------------------------




--------------------------------------- Iteration      1(   2)  ---------------------------------------


     EDDAV:  cpu time   31.2338: real time   31.2674
       DOS:  cpu time    0.0069: real time    0.0069
    --------------------------------------------
      LOOP:  cpu time   31.2407: real time   31.2742

 eigenvalue-minimisations  :  5764
 total energy-change (2. order) :-0.3774412E+04  (-0.3575659E+04)
 number of electron     552.0000000 magnetization 
 augmentation part      552.0000000 magnetization 

 DIPCOR: dipole corrections for dipol
 direction  3 min pos     1,
 dipolmoment           0.000000      0.000000     -0.000259 electrons x Angstroem
 Tr[quadrupol]     -7676.195442

 energy correction for charged system         0.000000 eV
 dipol+quadrupol energy correction           -0.000000 eV
 added-field ion interaction         -0.030975 eV  (added to PSCEN)


 Free energy of the ion-electron system (eV)
  ---------------------------------------------------
  alpha Z        PSCENC =       863.55601046
  Ewald energy   TEWEN  =    164004.65450766
  -Hartree energ DENC   =   -200915.66602860
  -exchange      EXHF   =         0.00000000
  -V(xc)+E(xc)   XCENC  =       872.45889287
  PAW double counting   =     33505.36643195   -32489.60540758
  entropy T*S    EENTRO =        -0.23555904
  eigenvalues    EBANDS =     -3125.97852343
  atomic energy  EATOM  =     37193.95212048
  Solvation  Ediel_sol  =         0.00000000
  ---------------------------------------------------
  free energy    TOTEN  =       -91.49755524 eV

  energy without entropy =      -91.26199619  energy(sigma->0) =      -91.37977571


--------------------------------------------------------------------------------------------------------




--------------------------------------- Iteration      1(   3)  ---------------------------------------


     EDDAV:  cpu time   29.9544: real time   29.9942
       DOS:  cpu time    0.0072: real time    0.0072
    --------------------------------------------
      LOOP:  cpu time   29.9616: real time   30.0014

 eigenvalue-minimisations  :  5468
 total energy-change (2. order) :-0.4333301E+03  (-0.4119465E+03)
 number of electron     552.0000000 magnetization 
 augmentation part      552.0000000 magnetization 

 DIPCOR: dipole corrections for dipol
 direction  3 min pos     1,
 dipolmoment           0.000000      0.000000     -0.000259 electrons x Angstroem
 Tr[quadrupol]     -7676.195442

 energy correction for charged system         0.000000 eV
 dipol+quadrupol energy correction           -0.000000 eV
 added-field ion interaction         -0.030975 eV  (added to PSCEN)


 Free energy of the ion-electron system (eV)
  ---------------------------------------------------
  alpha Z        PSCENC =       863.55601046
  Ewald energy   TEWEN  =    164004.65450766
  -Hartree energ DENC   =   -200915.66602860
  -exchange      EXHF   =         0.00000000
  -V(xc)+E(xc)   XCENC  =       872.45889287
  PAW double counting   =     33505.36643195   -32489.60540758
  entropy T*S    EENTRO =        -0.45134146
  eigenvalues    EBANDS =     -3559.09286281
  atomic energy  EATOM  =     37193.95212048
  Solvation  Ediel_sol  =         0.00000000
  ---------------------------------------------------
  free energy    TOTEN  =      -524.82767702 eV

  energy without entropy =     -524.37633557  energy(sigma->0) =     -524.60200630


--------------------------------------------------------------------------------------------------------




--------------------------------------- Iteration      1(   4)  ---------------------------------------


     EDDAV:  cpu time   31.3399: real time   31.3809
       DOS:  cpu time    0.0061: real time    0.0061
    --------------------------------------------
      LOOP:  cpu time   31.3460: real time   31.3870

 eigenvalue-minimisations  :  5780
 total energy-change (2. order) :-0.1659838E+02  (-0.1623081E+02)
 number of electron     552.0000000 magnetization 
 augmentation part      552.0000000 magnetization 

 DIPCOR: dipole corrections for dipol
 direction  3 min pos     1,
 dipolmoment           0.000000      0.000000     -0.000259 electrons x Angstroem
 Tr[quadrupol]     -7676.195442

 energy correction for charged system         0.000000 eV
 dipol+quadrupol energy correction           -0.000000 eV
 added-field ion interaction         -0.030975 eV  (added to PSCEN)


 Free energy of the ion-electron system (eV)
  ---------------------------------------------------
  alpha Z        PSCENC =       863.55601046
  Ewald energy   TEWEN  =    164004.65450766
  -Hartree energ DENC   =   -200915.66602860
  -exchange      EXHF   =         0.00000000
  -V(xc)+E(xc)   XCENC  =       872.45889287
  PAW double counting   =     33505.36643195   -32489.60540758
  entropy T*S    EENTRO =        -0.49177088
  eigenvalues    EBANDS =     -3575.65081456
  atomic energy  EATOM  =     37193.95212048
  Solvation  Ediel_sol  =         0.00000000
  ---------------------------------------------------
  free energy    TOTEN  =      -541.42605820 eV

  energy without entropy =     -540.93428732  energy(sigma->0) =     -541.18017276


--------------------------------------------------------------------------------------------------------




--------------------------------------- Iteration      1(   5)  ---------------------------------------


     EDDAV:  cpu time   34.4688: real time   34.5101
       DOS:  cpu time    0.0071: real time    0.0071
    CHARGE:  cpu time    0.7991: real time    0.7998
    MIXING:  cpu time    0.0040: real time    0.0047
    --------------------------------------------
      LOOP:  cpu time   35.2791: real time   35.3218

 eigenvalue-minimisations  :  6500
 total energy-change (2. order) :-0.5691321E+00  (-0.5674572E+00)
 number of electron     551.9999867 magnetization 
 augmentation part      119.5901215 magnetization 

 DIPCOR: dipole corrections for dipol
 direction  3 min pos     1,
 dipolmoment           0.000000      0.000000     -0.000259 electrons x Angstroem
 Tr[quadrupol]     -7676.195442

 energy correction for charged system         0.000000 eV
 dipol+quadrupol energy correction           -0.000000 eV
 added-field ion interaction         -0.030975 eV  (added to PSCEN)


 Broyden mixing:
  rms(total) = 0.71880E+01    rms(broyden)= 0.71846E+01
  rms(prec ) = 0.79193E+01
  weight for this iteration     100.00

 Free energy of the ion-electron system (eV)
  ---------------------------------------------------
  alpha Z        PSCENC =       863.55601046
  Ewald energy   TEWEN  =    164004.65450766
  -Hartree energ DENC   =   -200915.66602860
  -exchange      EXHF   =         0.00000000
  -V(xc)+E(xc)   XCENC  =       872.45889287
  PAW double counting   =     33505.36643195   -32489.60540758
  entropy T*S    EENTRO =        -0.49419614
  eigenvalues    EBANDS =     -3576.21752136
  atomic energy  EATOM  =     37193.95212048
  Solvation  Ediel_sol  =         0.00000000
  ---------------------------------------------------
  free energy    TOTEN  =      -541.99519026 eV

  energy without entropy =     -541.50099412  energy(sigma->0) =     -541.74809219


--------------------------------------------------------------------------------------------------------




--------------------------------------- Iteration      1(   6)  ---------------------------------------


    POTLOK:  cpu time    0.1259: real time    0.1292
    SETDIJ:  cpu time    0.0151: real time    0.0151
     EDDAV:  cpu time   36.7935: real time   36.8376
       DOS:  cpu time    0.0063: real time    0.0063
    CHARGE:  cpu time    0.7582: real time    0.7588
    MIXING:  cpu time    0.0043: real time    0.0055
    --------------------------------------------
      LOOP:  cpu time   37.7032: real time   37.7525

 eigenvalue-minimisations  :  7075
 total energy-change (2. order) :-0.2419942E+04  (-0.1295068E+04)
 number of electron     552.0000393 magnetization 
 augmentation part      131.5296247 magnetization 

 DIPCOR: dipole corrections for dipol
 direction  3 min pos     1,
 dipolmoment           0.000000      0.000000     17.092746 electrons x Angstroem
 Tr[quadrupol]     -7695.934988

 energy correction for charged system         0.000000 eV
 dipol+quadrupol energy correction          -10.099234 eV
 added-field ion interaction       2040.795435 eV  (added to PSCEN)


 Broyden mixing:
  rms(total) = 0.30857E+02    rms(broyden)= 0.30854E+02
  rms(prec ) = 0.40335E+02
  weight for this iteration     100.00

 eigenvalues of (default mixing * dielectric matrix)
  average eigenvalue GAMMA=   0.0214
  0.0214

 Free energy of the ion-electron system (eV)
  ---------------------------------------------------
  alpha Z        PSCENC =      2894.28318595
  Ewald energy   TEWEN  =    164004.65450766
  -Hartree energ DENC   =   -199277.56406804
  -exchange      EXHF   =         0.00000000
  -V(xc)+E(xc)   XCENC  =       892.80811810
  PAW double counting   =     37386.64025830   -36435.33301591
  entropy T*S    EENTRO =        -0.07665858
  eigenvalues    EBANDS =     -9621.30189693
  atomic energy  EATOM  =     37193.95212048
  Solvation  Ediel_sol  =         0.00000000
  ---------------------------------------------------
  free energy    TOTEN  =     -2961.93744896 eV

  energy without entropy =    -2961.86079038  energy(sigma->0) =    -2961.89911967


--------------------------------------------------------------------------------------------------------




--------------------------------------- Iteration      1(   7)  ---------------------------------------


    POTLOK:  cpu time    0.1259: real time    0.1262
    SETDIJ:  cpu time    0.0150: real time    0.0150
     EDDAV:  cpu time   29.0122: real time   29.0474
       DOS:  cpu time    0.0069: real time    0.0069
    CHARGE:  cpu time    0.7610: real time    0.7617
    MIXING:  cpu time    0.0045: real time    0.0045
    --------------------------------------------
      LOOP:  cpu time   29.9256: real time   29.9617

 eigenvalue-minimisations  :  5251
 total energy-change (2. order) : 0.1576032E+04  (-0.1555976E+03)
 number of electron     552.0000477 magnetization 
 augmentation part      133.4115032 magnetization 

 DIPCOR: dipole corrections for dipol
 direction  3 min pos     1,
 dipolmoment           0.000000      0.000000      8.539474 electrons x Angstroem
 Tr[quadrupol]     -7673.822317

 energy correction for charged system         0.000000 eV
 dipol+quadrupol energy correction           -2.520734 eV
 added-field ion interaction       1019.573963 eV  (added to PSCEN)


 Broyden mixing:
  rms(total) = 0.19867E+02    rms(broyden)= 0.19865E+02
  rms(prec ) = 0.28226E+02
  weight for this iteration     100.00

 eigenvalues of (default mixing * dielectric matrix)
  average eigenvalue GAMMA=   0.1954
  0.1954  0.1954

 Free energy of the ion-electron system (eV)
  ---------------------------------------------------
  alpha Z        PSCENC =      1880.64021471
  Ewald energy   TEWEN  =    164004.65450766
  -Hartree energ DENC   =   -199872.72755358
  -exchange      EXHF   =         0.00000000
  -V(xc)+E(xc)   XCENC  =       887.77359311
  PAW double counting   =     38115.07760061   -37165.66758256
  entropy T*S    EENTRO =        -0.12755200
  eigenvalues    EBANDS =     -6429.48086139
  atomic energy  EATOM  =     37193.95212048
  Solvation  Ediel_sol  =         0.00000000
  ---------------------------------------------------
  free energy    TOTEN  =     -1385.90551294 eV

  energy without entropy =    -1385.77796094  energy(sigma->0) =    -1385.84173694


--------------------------------------------------------------------------------------------------------




--------------------------------------- Iteration      1(   8)  ---------------------------------------


    POTLOK:  cpu time    0.1240: real time    0.1273
    SETDIJ:  cpu time    0.0150: real time    0.0150
     EDDAV:  cpu time   34.1411: real time   34.1825
       DOS:  cpu time    0.0065: real time    0.0065
    CHARGE:  cpu time    0.7866: real time    0.7874
    MIXING:  cpu time    0.0045: real time    0.0054
    --------------------------------------------
      LOOP:  cpu time   35.0776: real time   35.1241

 eigenvalue-minimisations  :  6452
 total energy-change (2. order) : 0.1088770E+04  (-0.6174482E+03)
 number of electron     552.0000106 magnetization 
 augmentation part      117.9924634 magnetization 

 DIPCOR: dipole corrections for dipol
 direction  3 min pos     1,
 dipolmoment           0.000000      0.000000     -2.493459 electrons x Angstroem
 Tr[quadrupol]     -7716.381403

 energy correction for charged system         0.000000 eV
 dipol+quadrupol energy correction           -0.214916 eV
 added-field ion interaction       -297.707585 eV  (added to PSCEN)


 Broyden mixing:
  rms(total) = 0.68491E+01    rms(broyden)= 0.68423E+01
  rms(prec ) = 0.71986E+01
  weight for this iteration     100.00

 eigenvalues of (default mixing * dielectric matrix)
  average eigenvalue GAMMA=   0.3303
  0.5848  0.2031  0.2031

 Free energy of the ion-electron system (eV)
  ---------------------------------------------------
  alpha Z        PSCENC =       565.66448419
  Ewald energy   TEWEN  =    164004.65450766
  -Hartree energ DENC   =   -201612.01429632
  -exchange      EXHF   =         0.00000000
  -V(xc)+E(xc)   XCENC  =       886.91150940
  PAW double counting   =     35911.69787745   -34956.51263451
  entropy T*S    EENTRO =        -0.39361337
  eigenvalues    EBANDS =     -2291.09516043
  atomic energy  EATOM  =     37193.95212048
  Solvation  Ediel_sol  =         0.00000000
  ---------------------------------------------------
  free energy    TOTEN  =      -297.13520545 eV

  energy without entropy =     -296.74159208  energy(sigma->0) =     -296.93839876


--------------------------------------------------------------------------------------------------------




--------------------------------------- Iteration      1(   9)  ---------------------------------------


    POTLOK:  cpu time    0.1247: real time    0.1250
    SETDIJ:  cpu time    0.0150: real time    0.0150
     EDDAV:  cpu time   33.5741: real time   33.6229
       DOS:  cpu time    0.0064: real time    0.0064
    CHARGE:  cpu time    0.7678: real time    0.7686
    MIXING:  cpu time    0.0047: real time    0.0047
    --------------------------------------------
      LOOP:  cpu time   34.4926: real time   34.5425

 eigenvalue-minimisations  :  6316
 total energy-change (2. order) :-0.3174876E+03  (-0.2625878E+03)
 number of electron     552.0000189 magnetization 
 augmentation part      134.3194265 magnetization 

 DIPCOR: dipole corrections for dipol
 direction  3 min pos     1,
 dipolmoment           0.000000      0.000000      6.141562 electrons x Angstroem
 Tr[quadrupol]     -7705.557336

 energy correction for charged system         0.000000 eV
 dipol+quadrupol energy correction           -1.303834 eV
 added-field ion interaction        733.274320 eV  (added to PSCEN)


 Broyden mixing:
  rms(total) = 0.10001E+02    rms(broyden)= 0.99959E+01
  rms(prec ) = 0.13194E+02
  weight for this iteration     100.00

 eigenvalues of (default mixing * dielectric matrix)
  average eigenvalue GAMMA=   0.3025
  0.4495  0.4495  0.1555  0.1555

 Free energy of the ion-electron system (eV)
  ---------------------------------------------------
  alpha Z        PSCENC =      1595.55747065
  Ewald energy   TEWEN  =    164004.65450766
  -Hartree energ DENC   =   -200804.51142450
  -exchange      EXHF   =         0.00000000
  -V(xc)+E(xc)   XCENC  =       876.46692341
  PAW double counting   =     36481.36790514   -35532.57381716
  entropy T*S    EENTRO =        -0.06675100
  eigenvalues    EBANDS =     -4429.46972361
  atomic energy  EATOM  =     37193.95212048
  Solvation  Ediel_sol  =         0.00000000
  ---------------------------------------------------
  free energy    TOTEN  =      -614.62278892 eV

  energy without entropy =     -614.55603792  energy(sigma->0) =     -614.58941342


--------------------------------------------------------------------------------------------------------




--------------------------------------- Iteration      1(  10)  ---------------------------------------


    POTLOK:  cpu time    0.1245: real time    0.1280
    SETDIJ:  cpu time    0.0149: real time    0.0149
     EDDAV:  cpu time   32.7845: real time   32.8249
       DOS:  cpu time    0.0071: real time    0.0071
    CHARGE:  cpu time    0.7873: real time    0.7880
    MIXING:  cpu time    0.0051: real time    0.0051
    --------------------------------------------
      LOOP:  cpu time   33.7234: real time   33.7680

 eigenvalue-minimisations  :  6116
 total energy-change (2. order) : 0.1176114E+03  (-0.3619640E+02)
 number of electron     551.9999922 magnetization 
 augmentation part      125.9198690 magnetization 

 DIPCOR: dipole corrections for dipol
 direction  3 min pos     1,
 dipolmoment           0.000000      0.000000      3.207625 electrons x Angstroem
 Tr[quadrupol]     -7700.324072

 energy correction for charged system         0.000000 eV
 dipol+quadrupol energy correction           -0.355657 eV
 added-field ion interaction        382.975715 eV  (added to PSCEN)


 Broyden mixing:
  rms(total) = 0.44751E+01    rms(broyden)= 0.44617E+01
  rms(prec ) = 0.47149E+01
  weight for this iteration     100.00

 eigenvalues of (default mixing * dielectric matrix)
  average eigenvalue GAMMA=   0.4539
  1.2824  0.3302  0.3302  0.1633  0.1633

 Free energy of the ion-electron system (eV)
  ---------------------------------------------------
  alpha Z        PSCENC =      1246.20704315
  Ewald energy   TEWEN  =    164004.65450766
  -Hartree energ DENC   =   -201220.93346950
  -exchange      EXHF   =         0.00000000
  -V(xc)+E(xc)   XCENC  =       879.39092064
  PAW double counting   =     36600.88112507   -35648.41027333
  entropy T*S    EENTRO =        -0.23056615
  eigenvalues    EBANDS =     -3552.52280989
  atomic energy  EATOM  =     37193.95212048
  Solvation  Ediel_sol  =         0.00000000
  ---------------------------------------------------
  free energy    TOTEN  =      -497.01140188 eV

  energy without entropy =     -496.78083572  energy(sigma->0) =     -496.89611880


--------------------------------------------------------------------------------------------------------




--------------------------------------- Iteration      1(  11)  ---------------------------------------


    POTLOK:  cpu time    0.1246: real time    0.1258
    SETDIJ:  cpu time    0.0150: real time    0.0150
     EDDAV:  cpu time   32.3959: real time   32.4365
       DOS:  cpu time    0.0072: real time    0.0072
    CHARGE:  cpu time    0.7840: real time    0.7846
    MIXING:  cpu time    0.0052: real time    0.0052
    --------------------------------------------
      LOOP:  cpu time   33.3318: real time   33.3744

 eigenvalue-minimisations  :  6068
 total energy-change (2. order) : 0.2065812E+01  (-0.9977476E+01)
 number of electron     551.9999951 magnetization 
 augmentation part      128.0069307 magnetization 

 DIPCOR: dipole corrections for dipol
 direction  3 min pos     1,
 dipolmoment           0.000000      0.000000      4.330211 electrons x Angstroem
 Tr[quadrupol]     -7706.197956

 energy correction for charged system         0.000000 eV
 dipol+quadrupol energy correction           -0.648161 eV
 added-field ion interaction        517.007355 eV  (added to PSCEN)


 Broyden mixing:
  rms(total) = 0.47950E+01    rms(broyden)= 0.47918E+01
  rms(prec ) = 0.51202E+01
  weight for this iteration     100.00

 eigenvalues of (default mixing * dielectric matrix)
  average eigenvalue GAMMA=   0.4676
  1.4734  0.3532  0.3532  0.1628  0.1628  0.3000

 Free energy of the ion-electron system (eV)
  ---------------------------------------------------
  alpha Z        PSCENC =      1379.94617984
  Ewald energy   TEWEN  =    164004.65450766
  -Hartree energ DENC   =   -201335.19376753
  -exchange      EXHF   =         0.00000000
  -V(xc)+E(xc)   XCENC  =       881.65365583
  PAW double counting   =     38066.74042521   -37127.77921686
  entropy T*S    EENTRO =        -0.52244288
  eigenvalues    EBANDS =     -3558.39705139
  atomic energy  EATOM  =     37193.95212048
  Solvation  Ediel_sol  =         0.00000000
  ---------------------------------------------------
  free energy    TOTEN  =      -494.94558964 eV

  energy without entropy =     -494.42314676  energy(sigma->0) =     -494.68436820


--------------------------------------------------------------------------------------------------------




--------------------------------------- Iteration      1(  12)  ---------------------------------------


    POTLOK:  cpu time    0.1249: real time    0.1283
    SETDIJ:  cpu time    0.0149: real time    0.0149
     EDDAV:  cpu time   30.9322: real time   30.9702
       DOS:  cpu time    0.0067: real time    0.0067
    CHARGE:  cpu time    0.8042: real time    0.8049
    MIXING:  cpu time    0.0052: real time    0.0052
    --------------------------------------------
      LOOP:  cpu time   31.8881: real time   31.9302

 eigenvalue-minimisations  :  5756
 total energy-change (2. order) :-0.1622641E+02  (-0.4476754E+01)
 number of electron     551.9999953 magnetization 
 augmentation part      123.2412855 magnetization 

 DIPCOR: dipole corrections for dipol
 direction  3 min pos     1,
 dipolmoment           0.000000      0.000000      3.079399 electrons x Angstroem
 Tr[quadrupol]     -7695.015373

 energy correction for charged system         0.000000 eV
 dipol+quadrupol energy correction           -0.327791 eV
 added-field ion interaction        367.666062 eV  (added to PSCEN)


 Broyden mixing:
  rms(total) = 0.49687E+01    rms(broyden)= 0.49656E+01
  rms(prec ) = 0.65022E+01
  weight for this iteration     100.00

 eigenvalues of (default mixing * dielectric matrix)
  average eigenvalue GAMMA=   0.4678
  1.6932  0.3770  0.3770  0.3662  0.1625  0.1625  0.1359

 Free energy of the ion-electron system (eV)
  ---------------------------------------------------
  alpha Z        PSCENC =      1230.92525708
  Ewald energy   TEWEN  =    164004.65450766
  -Hartree energ DENC   =   -201408.81771744
  -exchange      EXHF   =         0.00000000
  -V(xc)+E(xc)   XCENC  =       884.46220841
  PAW double counting   =     38446.15823077   -37511.21810326
  entropy T*S    EENTRO =        -0.18851552
  eigenvalues    EBANDS =     -3351.09998809
  atomic energy  EATOM  =     37193.95212048
  Solvation  Ediel_sol  =         0.00000000
  ---------------------------------------------------
  free energy    TOTEN  =      -511.17199990 eV

  energy without entropy =     -510.98348438  energy(sigma->0) =     -511.07774214


--------------------------------------------------------------------------------------------------------




--------------------------------------- Iteration      1(  13)  ---------------------------------------


    POTLOK:  cpu time    0.1243: real time    0.1246
    SETDIJ:  cpu time    0.0149: real time    0.0149
     EDDAV:  cpu time   31.7733: real time   31.8405
       DOS:  cpu time    0.0072: real time    0.0072
    CHARGE:  cpu time    0.7876: real time    0.7884
    MIXING:  cpu time    0.0055: real time    0.0055
    --------------------------------------------
      LOOP:  cpu time   32.7128: real time   32.7811

 eigenvalue-minimisations  :  5836
 total energy-change (2. order) : 0.1954138E+02  (-0.1371896E+01)
 number of electron     551.9999937 magnetization 
 augmentation part      125.1167985 magnetization 

 DIPCOR: dipole corrections for dipol
 direction  3 min pos     1,
 dipolmoment           0.000000      0.000000      3.828160 electrons x Angstroem
 Tr[quadrupol]     -7712.319971

 energy correction for charged system         0.000000 eV
 dipol+quadrupol energy correction           -0.506576 eV
 added-field ion interaction        457.064764 eV  (added to PSCEN)


 Broyden mixing:
  rms(total) = 0.33985E+01    rms(broyden)= 0.33957E+01
  rms(prec ) = 0.37637E+01
  weight for this iteration     100.00

 eigenvalues of (default mixing * dielectric matrix)
  average eigenvalue GAMMA=   0.4839
  1.9242  0.4150  0.4150  0.3276  0.3276  0.1629  0.1629  0.1359

 Free energy of the ion-electron system (eV)
  ---------------------------------------------------
  alpha Z        PSCENC =      1320.14517329
  Ewald energy   TEWEN  =    164004.65450766
  -Hartree energ DENC   =   -201581.21730117
  -exchange      EXHF   =         0.00000000
  -V(xc)+E(xc)   XCENC  =       885.42161168
  PAW double counting   =     38884.20164928   -37954.18912362
  entropy T*S    EENTRO =        -0.36157388
  eigenvalues    EBANDS =     -3244.23768262
  atomic energy  EATOM  =     37193.95212048
  Solvation  Ediel_sol  =         0.00000000
  ---------------------------------------------------
  free energy    TOTEN  =      -491.63061889 eV

  energy without entropy =     -491.26904501  energy(sigma->0) =     -491.44983195


--------------------------------------------------------------------------------------------------------




--------------------------------------- Iteration      1(  14)  ---------------------------------------


    POTLOK:  cpu time    0.1247: real time    0.1280
    SETDIJ:  cpu time    0.0150: real time    0.0150
     EDDAV:  cpu time   31.6571: real time   31.6961
       DOS:  cpu time    0.0063: real time    0.0063
    CHARGE:  cpu time    0.7950: real time    0.7956
    MIXING:  cpu time    0.0060: real time    0.0060
    --------------------------------------------
      LOOP:  cpu time   32.6040: real time   32.6469

 eigenvalue-minimisations  :  5908
 total energy-change (2. order) :-0.5913419E+00  (-0.1852270E+01)
 number of electron     551.9999956 magnetization 
 augmentation part      125.1400263 magnetization 

 DIPCOR: dipole corrections for dipol
 direction  3 min pos     1,
 dipolmoment           0.000000      0.000000      3.209255 electrons x Angstroem
 Tr[quadrupol]     -7713.262547

 energy correction for charged system         0.000000 eV
 dipol+quadrupol energy correction           -0.356019 eV
 added-field ion interaction        383.170308 eV  (added to PSCEN)


 Broyden mixing:
  rms(total) = 0.30121E+01    rms(broyden)= 0.30106E+01
  rms(prec ) = 0.36423E+01
  weight for this iteration     100.00

 eigenvalues of (default mixing * dielectric matrix)
  average eigenvalue GAMMA=   0.4771
  1.9729  0.4671  0.4671  0.3486  0.3486  0.1629  0.1629  0.2365  0.1272

 Free energy of the ion-electron system (eV)
  ---------------------------------------------------
  alpha Z        PSCENC =      1246.40127405
  Ewald energy   TEWEN  =    164004.65450766
  -Hartree energ DENC   =   -201609.64212750
  -exchange      EXHF   =         0.00000000
  -V(xc)+E(xc)   XCENC  =       887.02253242
  PAW double counting   =     39397.00576774   -38472.90606333
  entropy T*S    EENTRO =        -0.40268457
  eigenvalues    EBANDS =     -3138.30728776
  atomic energy  EATOM  =     37193.95212048
  Solvation  Ediel_sol  =         0.00000000
  ---------------------------------------------------
  free energy    TOTEN  =      -492.22196081 eV

  energy without entropy =     -491.81927624  energy(sigma->0) =     -492.02061853


--------------------------------------------------------------------------------------------------------




--------------------------------------- Iteration      1(  15)  ---------------------------------------


    POTLOK:  cpu time    0.1248: real time    0.1255
    SETDIJ:  cpu time    0.0150: real time    0.0150
     EDDAV:  cpu time   32.7049: real time   32.7446
       DOS:  cpu time    0.0071: real time    0.0071
    CHARGE:  cpu time    0.7995: real time    0.8002
    MIXING:  cpu time    0.0060: real time    0.0060
    --------------------------------------------
      LOOP:  cpu time   33.6574: real time   33.6984

 eigenvalue-minimisations  :  6148
 total energy-change (2. order) :-0.1274803E+01  (-0.4059527E+00)
 number of electron     551.9999939 magnetization 
 augmentation part      124.0561937 magnetization 

 DIPCOR: dipole corrections for dipol
 direction  3 min pos     1,
 dipolmoment           0.000000      0.000000      2.875880 electrons x Angstroem
 Tr[quadrupol]     -7715.666400

 energy correction for charged system         0.000000 eV
 dipol+quadrupol energy correction           -0.285895 eV
 added-field ion interaction        343.366930 eV  (added to PSCEN)


 Broyden mixing:
  rms(total) = 0.29529E+01    rms(broyden)= 0.29519E+01
  rms(prec ) = 0.38826E+01
  weight for this iteration     100.00

 eigenvalues of (default mixing * dielectric matrix)
  average eigenvalue GAMMA=   0.4999
  1.9910  0.6663  0.6663  0.3528  0.3528  0.1628  0.1628  0.2570  0.2570  0.1306

 Free energy of the ion-electron system (eV)
  ---------------------------------------------------
  alpha Z        PSCENC =      1206.66802028
  Ewald energy   TEWEN  =    164004.65450766
  -Hartree energ DENC   =   -201666.80521838
  -exchange      EXHF   =         0.00000000
  -V(xc)+E(xc)   XCENC  =       887.83567316
  PAW double counting   =     39587.82395265   -38665.42916431
  entropy T*S    EENTRO =        -0.51366703
  eigenvalues    EBANDS =     -3041.68298852
  atomic energy  EATOM  =     37193.95212048
  Solvation  Ediel_sol  =         0.00000000
  ---------------------------------------------------
  free energy    TOTEN  =      -493.49676402 eV

[...]
   -.789E+01 -.162E+02 -.679E+02   0.771E+01 0.161E+02 0.604E+02   0.116E+00 0.434E-01 0.784E+01   0.736E-01 0.112E+00 -.502E-01
   0.782E+01 -.728E+00 -.204E+03   -.830E+01 0.531E+00 0.212E+03   0.395E+00 0.279E+00 -.825E+01   0.402E-02 0.257E-01 0.185E-01
   0.386E+02 -.682E+02 -.102E+03   -.421E+02 0.743E+02 0.999E+02   0.367E+01 -.654E+01 0.250E+01   0.126E-01 0.382E-01 0.123E-01
   0.472E+02 -.164E+01 -.879E+03   -.394E+02 -.252E+02 0.858E+03   -.130E+02 0.237E+02 0.224E+02   -.796E-02 -.206E-01 -.512E+00
   -.899E+01 -.910E+01 -.816E+03   0.206E+02 -.253E+02 0.833E+03   -.116E+02 0.342E+02 -.167E+02   0.987E-02 0.215E-02 -.502E+00
   -.123E+02 0.232E+01 -.916E+03   0.281E+02 -.297E+02 0.944E+03   -.158E+02 0.270E+02 -.271E+02   -.419E-02 0.824E-02 -.508E+00
   -.825E+02 0.294E+02 -.784E+03   0.772E+02 -.657E+02 0.768E+03   0.810E+01 0.373E+02 0.120E+02   -.256E-01 -.505E-01 -.524E+00
   0.256E+02 -.234E+01 -.896E+03   -.135E+02 0.181E+02 0.884E+03   -.139E+02 -.204E+02 0.150E+02   0.817E-01 -.704E-01 0.784E+00
   -.357E+02 -.541E+02 -.903E+03   0.689E+02 0.517E+02 0.928E+03   -.332E+02 0.263E+01 -.245E+02   0.434E-01 0.535E-01 -.416E+00
   0.741E+01 -.607E+02 -.726E+03   0.319E+02 0.593E+02 0.737E+03   -.393E+02 0.977E+00 -.116E+02   0.193E+00 0.321E+00 -.604E+00
   -.188E+03 -.236E+02 -.910E+03   0.221E+03 0.174E+02 0.906E+03   -.308E+02 0.800E+01 0.402E+01   -.101E+00 -.291E-01 -.452E+00
   0.123E+03 0.318E+02 -.711E+03   -.122E+03 -.323E+02 0.711E+03   -.336E+01 -.205E+01 -.243E+01   0.546E-02 0.625E-01 -.210E+00
   -.538E+02 0.252E+01 -.780E+03   0.726E+02 -.370E+02 0.779E+03   -.189E+02 0.343E+02 0.863E+00   0.567E-02 0.105E+00 0.747E-01
   -.189E+03 0.173E+02 -.845E+03   0.207E+03 -.215E+02 0.872E+03   -.189E+02 0.471E+01 -.269E+02   0.825E-01 -.154E+00 0.134E+00
   -.217E+02 0.790E+02 -.748E+03   0.436E+02 -.103E+03 0.719E+03   -.214E+02 0.243E+02 0.293E+02   -.146E+00 -.244E+00 0.204E+00
   -.209E+02 -.312E+02 -.886E+03   0.272E+02 0.612E+01 0.867E+03   -.837E+01 0.232E+02 0.200E+02   -.207E-01 0.148E-01 -.497E+00
   0.615E+02 0.771E+02 -.804E+03   -.611E+02 -.722E+02 0.810E+03   -.899E-01 -.656E+01 -.102E+02   0.372E-01 -.352E-01 -.530E+00
   -.270E+02 0.504E+02 -.842E+03   0.287E+02 -.297E+02 0.842E+03   -.470E+01 -.276E+02 -.182E+01   0.648E-02 -.127E-01 -.465E+00
   0.433E+01 -.105E+02 -.811E+03   -.723E+01 -.171E+02 0.793E+03   0.234E+01 0.294E+02 0.152E+02   0.558E-02 0.404E-01 -.503E+00
   0.238E+02 -.433E+01 -.890E+03   -.107E+02 0.265E+02 0.879E+03   -.151E+02 -.280E+02 0.136E+02   -.596E-01 0.693E-01 0.167E+00
   -.115E+02 0.151E+03 -.915E+03   0.330E+02 -.162E+03 0.931E+03   -.218E+02 0.835E+01 -.147E+02   0.947E-01 -.637E-01 -.425E+00
   0.538E+02 0.303E+02 -.756E+03   -.412E+02 -.238E+02 0.767E+03   -.185E+02 -.867E+01 -.119E+02   0.237E+00 -.250E+00 -.539E+00
   -.872E+02 -.397E+02 -.885E+03   0.128E+03 0.391E+02 0.880E+03   -.413E+02 0.119E+01 0.433E+01   -.333E-01 0.419E-01 -.380E+00
   0.162E+03 0.278E+02 -.661E+03   -.176E+03 -.306E+02 0.661E+03   0.123E+02 0.168E+01 -.211E+01   -.130E+00 -.270E-01 0.472E-01
   -.808E+02 -.119E+01 -.818E+03   0.618E+02 0.173E+02 0.806E+03   0.216E+02 -.191E+02 0.145E+02   0.381E+00 -.200E+00 0.111E+00
   -.480E+02 -.107E+03 -.871E+03   0.647E+02 0.131E+03 0.896E+03   -.171E+02 -.230E+02 -.257E+02   0.376E+00 0.598E+00 0.249E+00
   -.181E+01 0.812E+00 -.731E+03   0.246E+02 -.299E+02 0.703E+03   -.231E+02 0.291E+02 0.284E+02   0.148E-01 0.186E+00 0.845E-01
   0.315E+00 0.476E+00 0.256E+04   -.222E+00 -.596E+00 -.256E+04   -.695E-02 -.388E-03 -.113E+01   -.861E-01 0.113E+00 0.402E+00
   -.541E+00 0.489E+00 0.255E+04   0.539E+00 -.601E+00 -.255E+04   0.762E-02 -.797E-02 -.113E+01   -.506E-02 0.115E+00 0.333E+00
   0.226E+00 0.475E+00 0.255E+04   -.317E+00 -.563E+00 -.255E+04   0.245E-04 -.176E-01 -.114E+01   0.912E-01 0.101E+00 0.383E+00
   0.533E+00 -.172E+00 0.256E+04   -.547E+00 0.147E+00 -.256E+04   0.847E-02 -.108E-02 -.112E+01   0.475E-02 0.187E-01 0.478E+00
   -.222E+00 -.156E+00 0.256E+04   0.319E+00 0.171E+00 -.256E+04   -.195E-02 -.218E-01 -.112E+01   -.964E-01 0.217E-02 0.419E+00
   -.307E+00 -.182E+00 0.255E+04   0.228E+00 0.154E+00 -.255E+04   -.976E-02 0.372E-02 -.112E+01   0.921E-01 0.157E-01 0.411E+00
   0.300E+00 -.509E+00 0.256E+04   -.187E+00 0.594E+00 -.255E+04   -.497E-02 0.104E-01 -.114E+01   -.111E+00 -.106E+00 0.448E+00
   -.528E+00 -.507E+00 0.255E+04   0.513E+00 0.601E+00 -.255E+04   0.455E-02 -.929E-03 -.115E+01   0.133E-01 -.996E-01 0.374E+00
   0.227E+00 -.469E+00 0.255E+04   -.327E+00 0.559E+00 -.255E+04   0.184E-02 -.793E-02 -.114E+01   0.975E-01 -.905E-01 0.444E+00
   0.510E+00 0.169E+00 0.255E+04   -.502E+00 -.143E+00 -.255E+04   0.504E-02 -.142E-02 -.111E+01   -.110E-01 -.332E-01 0.396E+00
   -.233E+00 0.197E+00 0.255E+04   0.328E+00 -.171E+00 -.255E+04   -.235E-02 -.163E-01 -.111E+01   -.937E-01 -.110E-01 0.335E+00
   -.273E+00 0.164E+00 0.255E+04   0.174E+00 -.151E+00 -.255E+04   -.525E-02 0.592E-02 -.112E+01   0.105E+00 -.263E-01 0.322E+00
   0.309E+01 0.162E+01 0.734E+03   -.311E+01 -.178E+01 -.734E+03   0.243E-02 0.593E-02 -.281E-01   0.242E-01 0.146E+00 -.827E-01
   -.161E+01 0.172E+01 0.737E+03   0.175E+01 -.188E+01 -.737E+03   -.189E-02 0.246E-01 -.448E-01   -.136E+00 0.133E+00 -.699E-01
   -.148E+01 0.163E+01 0.731E+03   0.137E+01 -.178E+01 -.731E+03   -.145E-02 0.259E-02 -.143E-01   0.111E+00 0.147E+00 -.851E-01
   0.145E+01 -.185E+01 0.737E+03   -.130E+01 0.187E+01 -.737E+03   -.102E-01 -.200E-01 -.115E-01   -.134E+00 -.391E-02 -.296E-01
   -.303E+01 -.192E+01 0.734E+03   0.302E+01 0.195E+01 -.734E+03   0.153E-01 -.204E-01 -.206E-01   -.640E-02 -.120E-01 -.289E-01
   0.158E+01 -.165E+01 0.732E+03   -.172E+01 0.164E+01 -.731E+03   -.883E-03 -.739E-02 -.179E-01   0.141E+00 0.158E-01 -.357E-01
   0.270E+01 -.166E+01 0.731E+03   -.270E+01 0.182E+01 -.731E+03   -.259E-02 0.248E-02 -.329E-01   0.480E-02 -.147E+00 0.101E-01
   -.173E+01 -.201E+01 0.732E+03   0.187E+01 0.213E+01 -.732E+03   -.208E-02 0.173E-01 -.249E-01   -.148E+00 -.135E+00 0.315E-01
   -.976E+00 -.171E+01 0.728E+03   0.830E+00 0.186E+01 -.728E+03   0.264E-02 0.543E-02 -.199E-01   0.143E+00 -.149E+00 0.253E-02
   0.115E+01 0.203E+01 0.733E+03   -.102E+01 -.203E+01 -.733E+03   -.447E-02 -.393E-02 -.221E-01   -.119E+00 0.413E-02 -.148E-01
   -.277E+01 0.213E+01 0.730E+03   0.278E+01 -.214E+01 -.730E+03   0.127E-01 -.810E-02 -.315E-01   -.236E-01 0.138E-01 -.267E-01
   0.162E+01 0.165E+01 0.728E+03   -.175E+01 -.164E+01 -.728E+03   -.355E-02 0.211E-02 -.276E-01   0.142E+00 -.117E-01 -.531E-01
   0.162E+02 0.107E+02 -.109E+04   -.163E+02 -.107E+02 0.109E+04   0.503E-02 -.744E-03 0.907E+00   0.414E-01 0.139E-02 -.504E+00
   -.101E+02 0.167E+02 -.108E+04   0.102E+02 -.167E+02 0.108E+04   0.105E-01 0.352E-01 0.752E+00   -.104E+00 0.159E-02 -.447E+00
   -.634E+01 0.113E+02 -.111E+04   0.628E+01 -.113E+02 0.111E+04   0.382E-03 0.242E-02 0.976E+00   0.622E-01 0.101E-01 -.436E+00
   0.902E+01 0.860E+00 -.106E+04   -.896E+01 -.901E+00 0.106E+04   0.906E-02 -.306E-01 0.112E+01   -.730E-01 0.976E-01 -.573E+00
   -.177E+02 0.896E+00 -.108E+04   0.177E+02 -.959E+00 0.108E+04   -.188E-01 -.120E-01 0.104E+01   -.215E-01 0.955E-01 -.503E+00
   0.870E+01 0.211E+01 -.109E+04   -.881E+01 -.222E+01 0.109E+04   0.650E-02 -.167E-02 0.888E+00   0.943E-01 0.122E+00 -.563E+00
   0.168E+02 -.825E+01 -.109E+04   -.169E+02 0.823E+01 0.109E+04   -.548E-02 0.976E-02 0.823E+00   0.107E-01 0.144E-01 -.591E+00
   -.110E+02 -.117E+02 -.107E+04   0.111E+02 0.117E+02 0.107E+04   0.371E-01 0.748E-02 0.447E+00   -.101E+00 0.885E-02 -.518E+00
   -.619E+01 -.946E+01 -.110E+04   0.610E+01 0.946E+01 0.110E+04   -.435E-02 0.975E-02 0.880E+00   0.905E-01 0.824E-03 -.519E+00
   0.275E+01 -.514E+01 -.109E+04   -.266E+01 0.523E+01 0.109E+04   -.983E-02 0.211E-01 0.936E+00   -.786E-01 -.107E+00 -.492E+00
   -.126E+02 -.428E+01 -.111E+04   0.126E+02 0.438E+01 0.111E+04   -.808E-02 0.176E-01 0.881E+00   -.300E-01 -.112E+00 -.421E+00
   0.985E+01 -.363E+01 -.111E+04   -.998E+01 0.375E+01 0.111E+04   0.120E-01 0.175E-01 0.877E+00   0.108E+00 -.133E+00 -.492E+00
 -----------------------------------------------------------------------------------------------
   0.254E+03 -.109E+03 0.761E+01   -.497E-13 -.419E-12 0.500E-11   -.255E+03 0.109E+03 0.125E+01   0.104E+01 0.307E+00 -.908E+01
 
 
 POSITION                                       TOTAL-FORCE (eV/Angst)
 -----------------------------------------------------------------------------------
      7.41281      2.45933     16.12658        -1.150258     -0.017147      1.636653
      1.15955      3.12991     16.03591         0.029805      1.251887      1.073381
      4.00671      4.75693     16.32379         0.068064     -0.172748     -0.049877
      6.04231      0.34025     16.38122        -1.560974     -0.482880      0.660456
      1.37172      0.67005     16.05372         4.152748      1.917358     -1.203786
      2.28646      0.04794     14.72831         1.691942      3.646526      1.564443
      6.46857      2.15780     17.83583         0.263765      0.175432      3.074358
      5.95533      2.98122     16.57482        -1.850601      1.226772      0.082994
      0.06901      1.79392     20.92505         1.017830      1.308956      1.414023
      8.14401      1.68071     16.35985         3.663165      1.988154     -0.721312
      3.82353      4.57535     19.85017         0.070985     -0.044820      0.053116
      4.70899      4.57482     18.55352        -0.092500     -0.137029      0.155470
      1.46019      3.84020     20.29137         0.201833      0.252564      0.415655
      1.12898      0.57821     20.19377         4.160179      1.206133      1.133315
      5.71374      1.33410     19.79019        -0.211396      0.281918      0.400196
      5.70151      2.91550     19.79510         0.320616      0.146941      0.152954
      1.18780      1.33761     23.51004         0.454918      0.770529      1.470237
      0.72136      1.83094     25.41256         1.539862      2.721746     -3.447698
      4.16370      4.49142     23.63457         0.060775     -0.062543      0.094497
      7.06430      9.49825     24.36812         0.341112      0.269054     -0.192351
      1.78236      3.81435     23.47690         0.175046      0.426759      0.158730
      2.25690      8.50387     22.22883         1.043368      1.561119     -1.170363
      6.34531      2.08090     25.41068        -0.110329     -0.000337      0.249494
      5.94476      2.92083     24.16015        -0.264763      0.003596     -0.179992
      7.41838      7.34381     16.12383        -0.706866     -0.178730      0.913815
      1.15500      8.01869     16.03916        -0.844708     -0.158492      0.767387
      3.84396      0.84934     16.00521        -0.227718      0.480619      2.991348
      5.39758      5.46432     16.56542        -0.219939     -0.167866     -0.126619
      1.73229      5.68667     15.89569         0.290325     -0.015697     -0.090127
      2.26806      4.88131     14.69712         0.073381     -0.126134     -0.093096
      6.47144      7.04514     17.83523         0.390934      0.200487      2.773015
      5.95512      7.89738     16.56587        -0.119778     -0.451229      0.538486
      0.04570      6.64126     20.86586         0.783675      0.835012      0.679902
      8.13955      6.56507     16.35904         3.583026      1.712384     -0.810845
      3.80948      0.71889     19.85514        -1.077250      0.069156      0.498822
      4.70187      0.72253     18.53646        -0.636053     -0.152644     -0.399948
      1.50264      8.57986     20.30330         0.258075      0.720062      0.945530
      1.46758      5.42388     20.28452        -0.133106     -0.012543      0.160157
      5.70851      6.20822     19.78156        -0.204751     -0.198417      0.162964
      5.69597      7.80252     19.79470         0.273636     -0.366911      0.134609
      1.19741      6.21574     23.51252         0.816891      2.347736      2.558632
      0.72707      6.71569     25.41245         1.552537      2.416176     -3.307362
      4.30119      0.53981     23.71360        -3.174479      2.427963     -1.748143
      5.51307      5.27541     23.89415         0.020847      0.081190      0.016953
      1.35133      0.12756     23.67255         0.227072      1.212628     -0.271484
      2.26134      4.64042     22.25847         0.027375      0.062644      0.234997
      6.34519      6.96670     25.41126        -0.060572      0.102358     -0.019262
      5.94146      7.79837     24.16086         0.174805     -0.392373      0.122636
      0.79025      2.24827     15.87119        -5.034199     -3.014847      0.051779
      4.91768      4.62319     16.69932         0.030150     -0.150201     -0.126481
      2.24748      4.86782     15.67773        -0.016376     -0.366383     -0.031989
      6.41019      2.17827     16.85992         2.594911      1.020609     -4.026064
      1.19686      2.46778     24.54403        -1.705215     -4.705420      2.880897
      4.76249      4.56500     19.53900        -0.050655      0.344005     -0.105196
      2.03121      4.63375     20.42471         0.080167     -0.089577     -0.570092
      6.32082      2.16795     19.62438         2.765408      1.803784     -0.789083
      1.12097      2.86709     22.32180        -2.159865     -2.500704     -2.711267
      5.13336      4.38276     23.77867        -0.100377     -0.030252     -0.104685
      2.75655      8.34321     23.07772        -0.027738      0.302323      0.011974
      6.42367      2.09178     24.44687         0.324004     -0.358948      0.007879
      0.81494      7.10080     15.87065        -1.816019     -1.733817      0.023155
      4.42114      1.04115     17.20794         0.430083     -1.545400     -4.258164
      2.62121      1.07156     15.46492        -3.033999     -6.467882     -1.963113
      6.40310      7.00338     16.86094        -0.734997      1.843469     -3.381502
      1.20626      7.34484     24.54750        -2.096789     -5.686788      2.315747
      4.72737      0.64623     19.54137        -0.210263     -3.008167      0.591871
      2.33666      0.86756     20.50534        -5.446746     -2.337636     -1.173602
      6.26819      7.00948     19.62403        -0.145603      0.623425     -0.871318
      1.11838      7.78551     22.37596        -1.253353     -1.114314     -1.993963
      3.44857      1.14214     23.21739         2.813149     -3.065455      1.914175
      2.28157      4.65253     23.24952         0.009954      1.283189      0.149229
      6.40934      6.97517     24.43926        -0.291935      0.275237     -0.126257
      1.39098      0.80308      7.13037        -0.000292     -0.006337     -0.384534
      4.17294      0.80308      7.13037         0.000495     -0.004749     -0.383034
      6.95491      0.80308      7.13037         0.000387     -0.005361     -0.385010
      0.00000      3.21233      7.13037        -0.000698     -0.007383     -0.387294
      2.78196      3.21233      7.13037        -0.001318     -0.004159     -0.390510
      5.56393      3.21233      7.13037         0.003364     -0.009388     -0.394330
      1.39098      5.62158      7.13037        -0.002984     -0.011049     -0.379408
      4.17294      5.62158      7.13037         0.003261     -0.006463     -0.380417
      6.95491      5.62158      7.13037        -0.000438     -0.008898     -0.385895
      0.00000      8.03084      7.13037         0.001511     -0.008393     -0.384765
      2.78196      8.03084      7.13037        -0.001220     -0.001403     -0.390394
      5.56393      8.03084      7.13037         0.001156     -0.008334     -0.395435
      0.00000      1.60617      9.40183         0.003144     -0.002231     -0.006448
      2.78196      1.60617      9.40183         0.000117     -0.001540     -0.005737
      5.56393      1.60617      9.40183        -0.002293     -0.002080     -0.002668
      1.39098      4.01542      9.40183         0.002695     -0.007624     -0.000671
      4.17294      4.01542      9.40183         0.000548     -0.007104     -0.004055
      6.95491      4.01542      9.40183         0.000786      0.000844     -0.002394
      0.00000      6.42467      9.40183         0.002785      0.006635     -0.007828
      2.78196      6.42467      9.40183        -0.003626      0.005328     -0.013201
      5.56393      6.42467      9.40183         0.000261      0.005899     -0.007897
      1.39098      8.83392      9.40183         0.000973     -0.002849     -0.004640
      4.17294      8.83392      9.40183        -0.000450     -0.000923     -0.001085
      6.95491      8.83392      9.40183         0.001569      0.002031     -0.004558
      0.00000      0.00000     11.67330         0.011493      0.006349      0.470553
      2.78196      0.00000     11.67330        -0.026988     -0.008460      0.594307
      5.56393      0.00000     11.67330        -0.001196      0.011157      0.434236
      1.39098      2.40925     11.67330         0.002283      0.019585      0.442866
      4.17294      2.40925     11.67330        -0.001598      0.015496      0.423634
      6.95491      2.40925     11.67330         0.000433      0.010501      0.426726
      0.00000      4.81850     11.67330         0.011485      0.002380      0.446658
      2.78196      4.81850     11.67330        -0.012260      0.006764      0.502474
      5.56393      4.81850     11.67330        -0.004057      0.006812      0.427513
      1.39098      7.22775     11.67330         0.007247      0.005004      0.475933
      4.17294      7.22775     11.67330        -0.001532      0.001837      0.437087
      6.95491      7.22775     11.67330        -0.001288      0.002534      0.449332
 -----------------------------------------------------------------------------------
    total drift:                               -0.002124      0.019735     -0.221556


--------------------------------------------------------------------------------------------------------



  FREE ENERGIE OF THE ION-ELECTRON SYSTEM (eV)
  ---------------------------------------------------
  free  energy   TOTEN  =      -501.42211467 eV

  energy  without entropy=     -500.81400960  energy(sigma->0) =     -501.11806213
 


--------------------------------------------------------------------------------------------------------


    POTLOK:  cpu time    0.1411: real time    0.1413


--------------------------------------------------------------------------------------------------------


 stress matrix after NEB project (eV)
    -70.68244     -8.04137      1.86819
     -8.04137    -77.00089     -0.12162
      1.86819     -0.12162    -15.30116
  FORCES: max atom, RMS     7.408945    2.308636
  FORCE total and by dimension   23.992053    6.467882
  Stress total and by dimension  106.280798   77.000894
     LOOP+:  cpu time 1990.8206: real time 1993.2836
 vacuum level on the upper side and lower side of the slab         4.247         4.565
    4ORBIT:  cpu time    0.0000: real time    0.0000

 total amount of memory used by VASP MPI-rank0   167272. kBytes
=======================================================================

   base      :      30000. kBytes
   nonlr-proj:       4378. kBytes
   fftplans  :       6719. kBytes
   grid      :      12775. kBytes
   one-center:        108. kBytes
   wavefun   :     113292. kBytes
 
  
  
 General timing and accounting informations for this job:
 ========================================================
  
                  Total CPU time used (sec):     2002.466
                            User time (sec):     1987.217
                          System time (sec):       15.249
                         Elapsed time (sec):     2005.830
  
                   Maximum memory used (kb):      329336.
                   Average memory used (kb):           0.
  
                          Minor page faults:        78895
                          Major page faults:          204
                 Voluntary context switches:         5452
