<?xml version="1.0" encoding="ISO-8859-1"?>
<modeling>
 <generator>
  <i name="program" type="string">vasp </i>
  <i name="version" type="string">5.4.4.18Apr17-6-g9f103f2a35  </i>
  <i name="subversion" type="string">(build Feb 25 2019 10:51:38) complex            parallel </i>
  <i name="platform" type="string">LinuxIFC </i>
  <i name="date" type="string">2019 08 03 </i>
  <i name="time" type="string">06:56:12 </i>
 </generator>
 <incar>
  <i type="string" name="SYSTEM"> CuH2O</i>
  <i type="int" name="ISTART">     0</i>
  <i type="string" name="PREC">normal</i>
  <i type="int" name="NELM">   200</i>
  <i type="int" name="IBRION">    -1</i>
  <i name="EDIFF">      0.00010000</i>
  <i name="EDIFFG">      0.00000000</i>
  <i type="int" name="NSW">     0</i>
  <i name="ENCUT">    400.00000000</i>
  <i type="string" name="LREAL"> AUTO</i>
  <i type="int" name="ISMEAR">     0</i>
  <i name="SIGMA">      0.10000000</i>
  <i type="logical" name="LWAVE"> F  </i>
  <i type="logical" name="LCHARG"> F  </i>
  <i type="logical" name="LVHAR"> T  </i>
  <v type="int" name="KPOINT_BSE">    -1     0     0     0</v>
  <i type="int" name="NELM">   200</i>
  <i type="string" name="GGA"> RP</i>
  <i type="logical" name="LDIPOL"> T  </i>
  <i type="int" name="IDIPOL">     3</i>
  <v name="DIPOL">      0.50000000      0.50000000      0.50000000</v>
 </incar>
 <structure name="primitive_cell" >
  <crystal>
   <varray name="basis" >
    <v>       8.34588864       0.00000000       0.00000000 </v>
    <v>       0.00000000       9.63700211       0.00000000 </v>
    <v>       0.00000000       0.00000000      32.54292636 </v>
   </varray>
   <i name="volume">   2617.40629817 </i>
   <varray name="rec_basis" >
    <v>       0.11981948       0.00000000       0.00000000 </v>
    <v>       0.00000000       0.10376671       0.00000000 </v>
    <v>       0.00000000       0.00000000       0.03072864 </v>
   </varray>
  </crystal>
  <varray name="positions" >
   <v>      -0.11180087       0.25519689       0.49554789 </v>
   <v>      -0.02418930       0.17440149      -0.49728385 </v>
   <v>      -0.23193415       0.22603208      -0.48191748 </v>
   <v>      -0.28643554       0.30935126      -0.49067834 </v>
   <v>       0.09468779       0.23329609       0.48770028 </v>
   <v>      -0.22493980       0.22390831      -0.45192909 </v>
   <v>       0.13893692       0.32478006       0.49276188 </v>
   <v>      -0.27601372       0.03530633      -0.49662730 </v>
   <v>       0.16435832       0.06952922       0.49330892 </v>
   <v>      -0.41076645       0.47973289      -0.48685268 </v>
   <v>      -0.47026114       0.10803687      -0.47122330 </v>
   <v>      -0.35326480      -0.43298514      -0.49096721 </v>
   <v>      -0.24264304       0.22496081      -0.39696945 </v>
   <v>       0.31407253       0.11119197       0.47521594 </v>
   <v>       0.46058085       0.08813360       0.49181850 </v>
   <v>       0.26929141      -0.49488250       0.48175541 </v>
   <v>      -0.43662443       0.07497412      -0.43039957 </v>
   <v>      -0.31684811       0.30253153      -0.39172357 </v>
   <v>       0.48008136       0.49361145      -0.49839197 </v>
   <v>      -0.02472385      -0.31876416      -0.49730887 </v>
   <v>       0.20756211      -0.40991324       0.48845286 </v>
   <v>      -0.31538270       0.13843514      -0.39187432 </v>
   <v>      -0.43577083       0.47471351      -0.42987540 </v>
   <v>       0.27396297       0.00497456       0.45258100 </v>
   <v>       0.27175725      -0.49348238       0.45162263 </v>
   <v>      -0.28646066      -0.18051458      -0.49095328 </v>
   <v>      -0.16666667       0.25000000       0.35870453 </v>
   <v>       0.13839195      -0.16792721       0.49286177 </v>
   <v>      -0.43356924       0.06705689      -0.39952020 </v>
   <v>      -0.23278377      -0.27328267      -0.48188603 </v>
   <v>      -0.11113387      -0.23795692       0.49546342 </v>
   <v>      -0.42936113       0.47369536      -0.39959308 </v>
   <v>       0.13527348       0.05999926      -0.37947271 </v>
   <v>       0.00826878       0.18614954      -0.35700145 </v>
   <v>       0.09764549      -0.26317300       0.48768350 </v>
   <v>      -0.22459546      -0.26894850      -0.45194764 </v>
   <v>       0.17495878       0.39848533      -0.37647372 </v>
   <v>       0.16666667       0.25000000       0.35870453 </v>
   <v>       0.00000000      -0.50000000       0.35870453 </v>
   <v>       0.00000000       0.00000000       0.35870453 </v>
   <v>      -0.33333333      -0.50000000       0.35870453 </v>
   <v>      -0.33333333       0.00000000       0.35870453 </v>
   <v>       0.45644945       0.07459665      -0.38987861 </v>
   <v>      -0.31600991      -0.35579323      -0.39213961 </v>
   <v>      -0.50000000       0.25000000       0.35870453 </v>
   <v>       0.45813395       0.47476897      -0.39003107 </v>
   <v>       0.17584498      -0.43718140      -0.37668412 </v>
   <v>       0.24337804       0.48082851      -0.37237625 </v>
   <v>       0.27997786       0.09002353      -0.36989856 </v>
   <v>      -0.24894828      -0.27264963      -0.39698011 </v>
   <v>      -0.31751187      -0.19035799      -0.39173565 </v>
   <v>       0.18004588      -0.10969652      -0.37610724 </v>
   <v>       0.33333333      -0.50000000       0.35870453 </v>
   <v>       0.33333333       0.00000000       0.35870453 </v>
   <v>       0.00547551      -0.31085860      -0.35882053 </v>
   <v>       0.13431433       0.29750847      -0.31408143 </v>
   <v>      -0.16666667      -0.25000000       0.35870453 </v>
   <v>       0.00000000       0.16666667       0.28890555 </v>
   <v>      -0.16666667       0.41666667       0.28890555 </v>
   <v>       0.16666667      -0.25000000       0.35870453 </v>
   <v>      -0.33333333       0.16666667       0.28890555 </v>
   <v>       0.27095283       0.48152163      -0.31602746 </v>
   <v>       0.16666667       0.41666667       0.28890555 </v>
   <v>      -0.50000000      -0.25000000       0.35870453 </v>
   <v>      -0.16666667      -0.08333333       0.28890555 </v>
   <v>      -0.50000000       0.41666667       0.28890555 </v>
   <v>       0.33333333       0.16666667       0.28890555 </v>
   <v>       0.14232198       0.13879974      -0.27756837 </v>
   <v>       0.27042086      -0.11758185      -0.31693825 </v>
   <v>       0.16666667      -0.08333333       0.28890555 </v>
   <v>       0.00000000      -0.33333333       0.28890555 </v>
   <v>       0.13400398      -0.19212305      -0.31241718 </v>
   <v>       0.21356153       0.39580279      -0.27858681 </v>
   <v>      -0.33333333      -0.33333333       0.28890555 </v>
   <v>       0.27337655       0.48277814      -0.28557373 </v>
   <v>      -0.50000000      -0.08333333       0.28890555 </v>
   <v>      -0.28770202       0.30308456      -0.25759136 </v>
   <v>      -0.38492299       0.45478486      -0.26931366 </v>
   <v>       0.16191548       0.01323682      -0.27257465 </v>
   <v>       0.41320618       0.11851599      -0.28656097 </v>
   <v>      -0.23031905       0.21705757      -0.24878075 </v>
   <v>      -0.48463365       0.05601434      -0.27131338 </v>
   <v>       0.49889247       0.46605956      -0.27374184 </v>
   <v>      -0.33942633      -0.45258853      -0.26576524 </v>
   <v>       0.14347312      -0.35501344      -0.27749229 </v>
   <v>       0.33333333      -0.33333333       0.28890555 </v>
   <v>      -0.15355987      -0.01439836      -0.25120084 </v>
   <v>       0.14340761       0.25607308      -0.24579522 </v>
   <v>       0.33028884      -0.13425302      -0.29085294 </v>
   <v>       0.00000000       0.33333333       0.21910656 </v>
   <v>      -0.16666667       0.08333333       0.21910656 </v>
   <v>      -0.33333333       0.33333333       0.21910656 </v>
   <v>      -0.28809691      -0.19078916      -0.25756951 </v>
   <v>      -0.23970815       0.21592771      -0.21916423 </v>
   <v>       0.16666667       0.08333333       0.21910656 </v>
   <v>       0.08643328       0.18999023      -0.21910656 </v>
   <v>      -0.23203656      -0.27620991      -0.24901462 </v>
   <v>      -0.16666667      -0.41666667       0.21910656 </v>
   <v>      -0.50000000       0.08333333       0.21910656 </v>
   <v>       0.33333333       0.33333333       0.21910656 </v>
   <v>       0.16666667      -0.41666667       0.21910656 </v>
   <v>       0.14453352      -0.23785048      -0.24568876 </v>
   <v>       0.00000000      -0.16666667       0.21910656 </v>
   <v>      -0.33333333      -0.16666667       0.21910656 </v>
   <v>      -0.50000000      -0.41666667       0.21910656 </v>
   <v>       0.08711711      -0.30313444      -0.21910983 </v>
   <v>      -0.23972288      -0.27708874      -0.21914636 </v>
   <v>       0.33333333      -0.16666667       0.21910656 </v>
  </varray>
 </structure>
 <varray name="primitive_index" >
  <v type="int" >        1 </v>
  <v type="int" >       10 </v>
  <v type="int" >       52 </v>
  <v type="int" >        8 </v>
  <v type="int" >       49 </v>
  <v type="int" >        7 </v>
  <v type="int" >        2 </v>
  <v type="int" >        4 </v>
  <v type="int" >        5 </v>
  <v type="int" >       50 </v>
  <v type="int" >       62 </v>
  <v type="int" >       28 </v>
  <v type="int" >       56 </v>
  <v type="int" >       63 </v>
  <v type="int" >       27 </v>
  <v type="int" >       51 </v>
  <v type="int" >       36 </v>
  <v type="int" >       16 </v>
  <v type="int" >        3 </v>
  <v type="int" >       34 </v>
  <v type="int" >       29 </v>
  <v type="int" >       15 </v>
  <v type="int" >       12 </v>
  <v type="int" >        6 </v>
  <v type="int" >       30 </v>
  <v type="int" >       32 </v>
  <v type="int" >      102 </v>
  <v type="int" >       26 </v>
  <v type="int" >       66 </v>
  <v type="int" >       64 </v>
  <v type="int" >       25 </v>
  <v type="int" >       54 </v>
  <v type="int" >       14 </v>
  <v type="int" >        9 </v>
  <v type="int" >       61 </v>
  <v type="int" >       31 </v>
  <v type="int" >       13 </v>
  <v type="int" >      100 </v>
  <v type="int" >      103 </v>
  <v type="int" >       97 </v>
  <v type="int" >      105 </v>
  <v type="int" >       99 </v>
  <v type="int" >       35 </v>
  <v type="int" >       39 </v>
  <v type="int" >      101 </v>
  <v type="int" >       11 </v>
  <v type="int" >       38 </v>
  <v type="int" >       55 </v>
  <v type="int" >       67 </v>
  <v type="int" >       68 </v>
  <v type="int" >       40 </v>
  <v type="int" >       37 </v>
  <v type="int" >      104 </v>
  <v type="int" >       98 </v>
  <v type="int" >       33 </v>
  <v type="int" >       57 </v>
  <v type="int" >      108 </v>
  <v type="int" >       85 </v>
  <v type="int" >       90 </v>
  <v type="int" >      106 </v>
  <v type="int" >       87 </v>
  <v type="int" >       46 </v>
  <v type="int" >       88 </v>
  <v type="int" >      107 </v>
  <v type="int" >       96 </v>
  <v type="int" >       89 </v>
  <v type="int" >       86 </v>
  <v type="int" >       17 </v>
  <v type="int" >       22 </v>
  <v type="int" >       94 </v>
  <v type="int" >       91 </v>
  <v type="int" >       69 </v>
  <v type="int" >       21 </v>
  <v type="int" >       93 </v>
  <v type="int" >       71 </v>
  <v type="int" >       95 </v>
  <v type="int" >       24 </v>
  <v type="int" >       58 </v>
  <v type="int" >       45 </v>
  <v type="int" >       70 </v>
  <v type="int" >       60 </v>
  <v type="int" >       43 </v>
  <v type="int" >       19 </v>
  <v type="int" >       44 </v>
  <v type="int" >       41 </v>
  <v type="int" >       92 </v>
  <v type="int" >       20 </v>
  <v type="int" >       53 </v>
  <v type="int" >       59 </v>
  <v type="int" >       76 </v>
  <v type="int" >       75 </v>
  <v type="int" >       78 </v>
  <v type="int" >       48 </v>
  <v type="int" >       23 </v>
  <v type="int" >       73 </v>
  <v type="int" >       18 </v>
  <v type="int" >       72 </v>
  <v type="int" >       81 </v>
  <v type="int" >       74 </v>
  <v type="int" >       77 </v>
  <v type="int" >       79 </v>
  <v type="int" >       65 </v>
  <v type="int" >       82 </v>
  <v type="int" >       84 </v>
  <v type="int" >       80 </v>
  <v type="int" >       42 </v>
  <v type="int" >       47 </v>
  <v type="int" >       83 </v>
 </varray>
 <kpoints>
  <generation param="Gamma">
   <v type="int" name="divisions">       4        3        1 </v>
   <v name="usershift">      0.00000000       0.00000000       0.00000000 </v>
   <v name="genvec1">      0.25000000       0.00000000       0.00000000 </v>
   <v name="genvec2">      0.00000000       0.33333333       0.00000000 </v>
   <v name="genvec3">      0.00000000       0.00000000       1.00000000 </v>
   <v name="shift">      0.00000000       0.00000000       0.00000000 </v>
  </generation>
  <varray name="kpointlist" >
   <v>       0.00000000       0.00000000       0.00000000 </v>
   <v>       0.25000000       0.00000000       0.00000000 </v>
   <v>       0.50000000       0.00000000       0.00000000 </v>
   <v>       0.00000000       0.33333333       0.00000000 </v>
   <v>       0.25000000       0.33333333       0.00000000 </v>
   <v>       0.50000000       0.33333333       0.00000000 </v>
   <v>      -0.25000000       0.33333333       0.00000000 </v>
  </varray>
  <varray name="weights" >
   <v>       0.08333333 </v>
   <v>       0.16666667 </v>
   <v>       0.08333333 </v>
   <v>       0.16666667 </v>
   <v>       0.16666667 </v>
   <v>       0.16666667 </v>
   <v>       0.16666667 </v>
  </varray>
 </kpoints>
 <parameters>
  <separator name="general" >
   <i type="string" name="SYSTEM">CuH2O</i>
   <i type="logical" name="LCOMPAT"> F  </i>
  </separator>
  <separator name="electronic" >
   <i type="string" name="PREC">normal</i>
   <i name="ENMAX">    400.00000000</i>
   <i name="ENAUG">    605.39200000</i>
   <i name="EDIFF">      0.00010000</i>
   <i type="int" name="IALGO">    38</i>
   <i type="int" name="IWAVPR">    10</i>
   <i type="int" name="NBANDS">   331</i>
   <i name="NELECT">    552.00000000</i>
   <i type="int" name="TURBO">     0</i>
   <i type="int" name="IRESTART">     0</i>
   <i type="int" name="NREBOOT">     0</i>
   <i type="int" name="NMIN">     0</i>
   <i name="EREF">      0.00000000</i>
   <separator name="electronic smearing" >
    <i type="int" name="ISMEAR">     0</i>
    <i name="SIGMA">      0.10000000</i>
    <i name="KSPACING">      0.50000000</i>
    <i type="logical" name="KGAMMA"> T  </i>
   </separator>
   <separator name="electronic projectors" >
    <i type="logical" name="LREAL"> T  </i>
    <v name="ROPT">     -0.00050000     -0.00050000     -0.00050000</v>
    <i type="int" name="LMAXPAW">  -100</i>
    <i type="int" name="LMAXMIX">     2</i>
    <i type="logical" name="NLSPLINE"> F  </i>
   </separator>
   <separator name="electronic startup" >
    <i type="int" name="ISTART">     0</i>
    <i type="int" name="ICHARG">     2</i>
    <i type="int" name="INIWAV">     1</i>
   </separator>
   <separator name="electronic spin" >
    <i type="int" name="ISPIN">     1</i>
    <i type="logical" name="LNONCOLLINEAR"> F  </i>
    <v name="MAGMOM">      1.00000000      1.00000000      1.00000000      1.00000000      1.00000000      1.00000000      1.00000000      1.00000000      1.00000000      1.00000000      1.00000000      1.00000000      1.00000000      1.00000000      1.00000000      1.00000000      1.00000000      1.00000000      1.00000000      1.00000000
      1.00000000      1.00000000      1.00000000      1.00000000      1.00000000      1.00000000      1.00000000      1.00000000      1.00000000      1.00000000      1.00000000      1.00000000      1.00000000      1.00000000      1.00000000      1.00000000      1.00000000      1.00000000      1.00000000      1.00000000
      1.00000000      1.00000000      1.00000000      1.00000000      1.00000000      1.00000000      1.00000000      1.00000000      1.00000000      1.00000000      1.00000000      1.00000000      1.00000000      1.00000000      1.00000000      1.00000000      1.00000000      1.00000000      1.00000000      1.00000000
      1.00000000      1.00000000      1.00000000      1.00000000      1.00000000      1.00000000      1.00000000      1.00000000      1.00000000      1.00000000      1.00000000      1.00000000      1.00000000      1.00000000      1.00000000      1.00000000      1.00000000      1.00000000      1.00000000      1.00000000
      1.00000000      1.00000000      1.00000000      1.00000000      1.00000000      1.00000000      1.00000000      1.00000000      1.00000000      1.00000000      1.00000000      1.00000000      1.00000000      1.00000000      1.00000000      1.00000000      1.00000000      1.00000000      1.00000000      1.00000000
      1.00000000      1.00000000      1.00000000      1.00000000      1.00000000      1.00000000      1.00000000      1.00000000</v>
    <i name="NUPDOWN">     -1.00000000</i>
    <i type="logical" name="LSORBIT"> F  </i>
    <v name="SAXIS">      0.00000000      0.00000000      1.00000000</v>
    <i type="logical" name="LSPIRAL"> F  </i>
    <v name="QSPIRAL">      0.00000000      0.00000000      0.00000000</v>
    <i type="logical" name="LZEROZ"> F  </i>
   </separator>
   <separator name="electronic exchange-correlation" >
    <i type="logical" name="LASPH"> F  </i>
    <i type="logical" name="LMETAGGA"> F  </i>
   </separator>
   <separator name="electronic convergence" >
    <i type="int" name="NELM">   200</i>
    <i type="int" name="NELMDL">    -5</i>
    <i type="int" name="NELMIN">     2</i>
    <i name="ENINI">    400.00000000</i>
    <separator name="electronic convergence detail" >
     <i type="logical" name="LDIAG"> T  </i>
     <i type="logical" name="LSUBROT"> F  </i>
     <i name="WEIMIN">      0.00000000</i>
     <i name="EBREAK">      0.00000000</i>
     <i name="DEPER">      0.30000000</i>
     <i type="int" name="NRMM">     4</i>
     <i name="TIME">      0.40000000</i>
    </separator>
   </separator>
   <separator name="electronic mixer" >
    <i name="AMIX">      0.40000000</i>
    <i name="BMIX">      1.00000000</i>
    <i name="AMIN">      0.10000000</i>
    <i name="AMIX_MAG">      1.60000000</i>
    <i name="BMIX_MAG">      1.00000000</i>
    <separator name="electronic mixer details" >
     <i type="int" name="IMIX">     4</i>
     <i type="logical" name="MIXFIRST"> F  </i>
     <i type="int" name="MAXMIX">   -45</i>
     <i name="WC">    100.00000000</i>
     <i type="int" name="INIMIX">     1</i>
     <i type="int" name="MIXPRE">     1</i>
     <i type="int" name="MREMOVE">     5</i>
    </separator>
   </separator>
   <separator name="electronic dipolcorrection" >
    <i type="logical" name="LDIPOL"> T  </i>
    <i type="logical" name="LMONO"> F  </i>
    <i type="int" name="IDIPOL">     3</i>
    <i name="EPSILON">      1.00000000</i>
    <v name="DIPOL">      0.50000000      0.50000000      0.50000000</v>
    <i name="EFIELD">      0.00000000</i>
   </separator>
  </separator>
  <separator name="grids" >
   <i type="int" name="NGX">    42</i>
   <i type="int" name="NGY">    48</i>
   <i type="int" name="NGZ">   160</i>
   <i type="int" name="NGXF">    84</i>
   <i type="int" name="NGYF">    96</i>
   <i type="int" name="NGZF">   320</i>
   <i type="logical" name="ADDGRID"> F  </i>
  </separator>
  <separator name="ionic" >
   <i type="int" name="NSW">     0</i>
   <i type="int" name="IBRION">    -1</i>
   <i type="int" name="MDALGO">     0</i>
   <i type="int" name="ISIF">     2</i>
   <i name="PSTRESS">      0.00000000</i>
   <i name="EDIFFG">      0.00000000</i>
   <i type="int" name="NFREE">     0</i>
   <i name="POTIM">      0.50000000</i>
   <i name="SMASS">     -3.00000000</i>
   <i name="SCALEE">      1.00000000</i>
  </separator>
  <separator name="ionic md" >
   <i name="TEBEG">      0.00010000</i>
   <i name="TEEND">      0.00010000</i>
   <i type="int" name="NBLOCK">     1</i>
   <i type="int" name="KBLOCK">     1</i>
   <i type="int" name="NPACO">   256</i>
   <i name="APACO">     16.00000000</i>
  </separator>
  <separator name="symmetry" >
   <i type="int" name="ISYM">     2</i>
   <i name="SYMPREC">      0.00001000</i>
  </separator>
  <separator name="dos" >
   <i type="int" name="LORBIT">     0</i>
   <v name="RWIGS">     -1.00000000     -1.00000000     -1.00000000</v>
   <i type="int" name="NEDOS">   301</i>
   <i name="EMIN">     10.00000000</i>
   <i name="EMAX">    -10.00000000</i>
   <i name="EFERMI">      0.00000000</i>
  </separator>
  <separator name="writing" >
   <i type="int" name="NWRITE">     2</i>
   <i type="logical" name="LWAVE"> F  </i>
   <i type="logical" name="LDOWNSAMPLE"> F  </i>
   <i type="logical" name="LCHARG"> F  </i>
   <i type="logical" name="LPARD"> F  </i>
   <i type="logical" name="LVTOT"> F  </i>
   <i type="logical" name="LVHAR"> T  </i>
   <i type="logical" name="LELF"> F  </i>
   <i type="logical" name="LOPTICS"> F  </i>
   <v name="STM">      0.00000000      0.00000000      0.00000000      0.00000000      0.00000000      0.00000000      0.00000000</v>
  </separator>
  <separator name="performance" >
   <i type="int" name="NPAR">     1</i>
   <i type="int" name="NSIM">     4</i>
   <i type="int" name="NBLK">    -1</i>
   <i type="logical" name="LPLANE"> T  </i>
   <i type="logical" name="LSCALAPACK"> T  </i>
   <i type="logical" name="LSCAAWARE"> F  </i>
   <i type="logical" name="LSCALU"> F  </i>
   <i type="logical" name="LASYNC"> F  </i>
   <i type="logical" name="LORBITALREAL"> F  </i>
  </separator>
  <separator name="miscellaneous" >
   <i type="int" name="IDIOT">     3</i>
   <i type="int" name="ISPECIAL">     0</i>
   <i type="logical" name="LMUSIC"> F  </i>
   <v name="POMASS">      1.00000000     16.00000000    195.08000000</v>
   <v name="DARWINR">      0.00000000      0.00000000      0.00000000</v>
   <v name="DARWINV">      1.00000000      1.00000000      1.00000000</v>
   <i type="logical" name="LCORR"> T  </i>
  </separator>
  <i type="logical" name="GGA_COMPAT"> T  </i>
  <i type="logical" name="LBERRY"> F  </i>
  <i type="int" name="ICORELEVEL">     0</i>
  <i type="logical" name="LDAU"> F  </i>
  <i type="int" name="I_CONSTRAINED_M">     0</i>
  <separator name="electronic exchange-correlation" >
   <i type="string" name="GGA">RP</i>
   <i type="int" name="VOSKOWN">     0</i>
   <i type="logical" name="LHFCALC"> F  </i>
   <i type="string" name="PRECFOCK"></i>
   <i type="logical" name="LSYMGRAD"> F  </i>
   <i type="logical" name="LHFONE"> F  </i>
   <i type="logical" name="LRHFCALC"> F  </i>
   <i type="logical" name="LTHOMAS"> F  </i>
   <i type="logical" name="LMODELHF"> F  </i>
   <i name="ENCUT4O">     -1.00000000</i>
   <i type="int" name="EXXOEP">     0</i>
   <i type="int" name="FOURORBIT">     0</i>
   <i name="AEXX">      0.00000000</i>
   <i name="HFALPHA">      0.00000000</i>
   <i name="MCALPHA">      0.00000000</i>
   <i name="ALDAX">      1.00000000</i>
   <i name="AGGAX">      1.00000000</i>
   <i name="ALDAC">      1.00000000</i>
   <i name="AGGAC">      1.00000000</i>
   <i type="int" name="NKREDX">     1</i>
   <i type="int" name="NKREDY">     1</i>
   <i type="int" name="NKREDZ">     1</i>
   <i type="logical" name="SHIFTRED"> F  </i>
   <i type="logical" name="ODDONLY"> F  </i>
   <i type="logical" name="EVENONLY"> F  </i>
   <i type="int" name="LMAXFOCK">     0</i>
   <i type="int" name="NMAXFOCKAE">     0</i>
   <i type="logical" name="LFOCKAEDFT"> F  </i>
   <i name="HFSCREEN">      0.00000000</i>
   <i name="HFSCREENC">      0.00000000</i>
   <i type="int" name="NBANDSGWLOW">     0</i>
  </separator>
  <separator name="vdW DFT" >
   <i type="logical" name="LUSE_VDW"> F  </i>
   <i name="Zab_VDW">     -0.84910000</i>
   <i name="PARAM1">      0.12340000</i>
   <i name="PARAM2">      1.00000000</i>
   <i name="PARAM3">      0.00000000</i>
  </separator>
  <separator name="model GW" >
   <i type="int" name="MODEL_GW">     0</i>
   <i name="MODEL_EPS0">     14.54114610</i>
   <i name="MODEL_ALPHA">      1.00000000</i>
  </separator>
  <separator name="linear response parameters" >
   <i type="logical" name="LEPSILON"> F  </i>
   <i type="logical" name="LRPA"> F  </i>
   <i type="logical" name="LNABLA"> F  </i>
   <i type="logical" name="LVEL"> F  </i>
   <i type="int" name="KINTER">     0</i>
   <i name="CSHIFT">      0.10000000</i>
   <i name="OMEGAMAX">     -1.00000000</i>
   <i name="DEG_THRESHOLD">      0.00200000</i>
   <i name="RTIME">     -0.10000000</i>
   <i name="WPLASMAI">      0.00000000</i>
   <v name="DFIELD">      0.00000000      0.00000000      0.00000000</v>
   <v name="WPLASMA">      0.00000000      0.00000000      0.00000000      0.00000000      0.00000000      0.00000000      0.00000000      0.00000000      0.00000000</v>
  </separator>
  <separator name="orbital magnetization" >
   <i type="logical" name="NUCIND"> F  </i>
   <v name="MAGPOS">      0.00000000      0.00000000      0.00000000</v>
   <i type="logical" name="LNICSALL"> T  </i>
   <i type="logical" name="ORBITALMAG"> F  </i>
   <i type="logical" name="LMAGBLOCH"> F  </i>
   <i type="logical" name="LCHIMAG"> F  </i>
   <i type="logical" name="LGAUGE"> T  </i>
   <i type="int" name="MAGATOM">     0</i>
   <v name="MAGDIPOL">      0.00000000      0.00000000      0.00000000</v>
   <v name="AVECCONST">      0.00000000      0.00000000      0.00000000</v>
  </separator>
  <separator name="response functions" >
   <i type="logical" name="LADDER"> F  </i>
   <i type="logical" name="LRPAFORCE"> F  </i>
   <i type="logical" name="LFXC"> F  </i>
   <i type="logical" name="LHARTREE"> T  </i>
   <i type="int" name="IBSE">     0</i>
   <v type="int" name="KPOINT">    -1     0     0     0</v>
   <i type="logical" name="LTCTE"> F  </i>
   <i type="logical" name="LTETE"> F  </i>
   <i type="logical" name="LTRIPLET"> F  </i>
   <i type="logical" name="LFXCEPS"> F  </i>
   <i type="logical" name="LFXHEG"> F  </i>
   <i type="int" name="NATURALO">     2</i>
   <i type="logical" name="L2ORDER"> F  </i>
   <i type="logical" name="LMP2LT"> F  </i>
   <i type="logical" name="LUSEW"> F  </i>
   <i name="ENCUTGW">     -2.00000000</i>
   <i name="ENCUTGWSOFT">     -2.00000000</i>
   <i name="ENCUTLF">     -1.00000000</i>
   <i type="int" name="LMAXMP2">    -1</i>
   <i name="SCISSOR">      0.00000000</i>
   <i type="int" name="NOMEGA">     0</i>
   <i type="int" name="NOMEGAR">     0</i>
   <i type="int" name="NBANDSGW">    -1</i>
   <i type="int" name="NBANDSO">    -1</i>
   <i type="int" name="NBANDSV">    -1</i>
   <i type="int" name="NELM">   200</i>
   <i type="int" name="NELMHF">     1</i>
   <i type="int" name="DIM">     3</i>
   <i type="int" name="ANTIRES">     0</i>
   <i name="OMEGAMAX">    -30.00000000</i>
   <i name="OMEGAMIN">    -30.00000000</i>
   <i name="OMEGATL">   -200.00000000</i>
   <i type="int" name="OMEGAGRID">   140</i>
   <i name="CSHIFT">     -0.10000000</i>
   <i type="logical" name="SELFENERGY"> F  </i>
   <i type="logical" name="LSPECTRAL"> F  </i>
   <i type="logical" name="LSPECTRALGW"> F  </i>
   <i type="logical" name="LSINGLES"> F  </i>
   <i type="logical" name="LFERMIGW"> F  </i>
   <i type="logical" name="ODDONLYGW"> F  </i>
   <i type="logical" name="EVENONLYGW"> F  </i>
   <i type="int" name="NKREDLFX">     1</i>
   <i type="int" name="NKREDLFY">     1</i>
   <i type="int" name="NKREDLFZ">     1</i>
   <i type="int" name="MAXMEM">  2800</i>
   <i type="int" name="TELESCOPE">     0</i>
   <i type="int" name="TAUPAR">     1</i>
   <i type="int" name="OMEGAPAR">    -1</i>
   <i name="LAMBDA">      1.00000000</i>
  </separator>
  <separator name="External order field" >
   <i name="OFIELD_KAPPA">      0.00000000</i>
   <v name="OFIELD_K">      0.00000000      0.00000000      0.00000000</v>
   <i name="OFIELD_Q6_NEAR">      0.00000000</i>
   <i name="OFIELD_Q6_FAR">      0.00000000</i>
   <i name="OFIELD_A">      0.00000000</i>
  </separator>
  <separator name="solvation model" >
   <i type="logical" name="LSOL"> F  </i>
  </separator>
 </parameters>
 <atominfo>
  <atoms>     108 </atoms>
  <types>       3 </types>
  <array name="atoms" >
   <dimension dim="1">ion</dimension>
   <field type="string">element</field>
   <field type="int">atomtype</field>
   <set>
    <rc><c>H </c><c>   1</c></rc>
    <rc><c>H </c><c>   1</c></rc>
    <rc><c>H </c><c>   1</c></rc>
    <rc><c>H </c><c>   1</c></rc>
    <rc><c>H </c><c>   1</c></rc>
    <rc><c>H </c><c>   1</c></rc>
    <rc><c>H </c><c>   1</c></rc>
    <rc><c>H </c><c>   1</c></rc>
    <rc><c>H </c><c>   1</c></rc>
    <rc><c>H </c><c>   1</c></rc>
    <rc><c>H </c><c>   1</c></rc>
    <rc><c>H </c><c>   1</c></rc>
    <rc><c>H </c><c>   1</c></rc>
    <rc><c>H </c><c>   1</c></rc>
    <rc><c>H </c><c>   1</c></rc>
    <rc><c>H </c><c>   1</c></rc>
    <rc><c>H </c><c>   1</c></rc>
    <rc><c>H </c><c>   1</c></rc>
    <rc><c>H </c><c>   1</c></rc>
    <rc><c>H </c><c>   1</c></rc>
    <rc><c>H </c><c>   1</c></rc>
    <rc><c>H </c><c>   1</c></rc>
    <rc><c>H </c><c>   1</c></rc>
    <rc><c>H </c><c>   1</c></rc>
    <rc><c>H </c><c>   1</c></rc>
    <rc><c>H </c><c>   1</c></rc>
    <rc><c>H </c><c>   1</c></rc>
    <rc><c>H </c><c>   1</c></rc>
    <rc><c>H </c><c>   1</c></rc>
    <rc><c>H </c><c>   1</c></rc>
    <rc><c>H </c><c>   1</c></rc>
    <rc><c>H </c><c>   1</c></rc>
    <rc><c>H </c><c>   1</c></rc>
    <rc><c>H </c><c>   1</c></rc>
    <rc><c>H </c><c>   1</c></rc>
    <rc><c>H </c><c>   1</c></rc>
    <rc><c>H </c><c>   1</c></rc>
    <rc><c>H </c><c>   1</c></rc>
    <rc><c>H </c><c>   1</c></rc>
    <rc><c>H </c><c>   1</c></rc>
    <rc><c>H </c><c>   1</c></rc>
    <rc><c>H </c><c>   1</c></rc>
    <rc><c>H </c><c>   1</c></rc>
    <rc><c>H </c><c>   1</c></rc>
    <rc><c>H </c><c>   1</c></rc>
    <rc><c>H </c><c>   1</c></rc>
    <rc><c>H </c><c>   1</c></rc>
    <rc><c>H </c><c>   1</c></rc>
    <rc><c>O </c><c>   2</c></rc>
    <rc><c>O </c><c>   2</c></rc>
    <rc><c>O </c><c>   2</c></rc>
    <rc><c>O </c><c>   2</c></rc>
    <rc><c>O </c><c>   2</c></rc>
    <rc><c>O </c><c>   2</c></rc>
    <rc><c>O </c><c>   2</c></rc>
    <rc><c>O </c><c>   2</c></rc>
    <rc><c>O </c><c>   2</c></rc>
    <rc><c>O </c><c>   2</c></rc>
    <rc><c>O </c><c>   2</c></rc>
    <rc><c>O </c><c>   2</c></rc>
    <rc><c>O </c><c>   2</c></rc>
    <rc><c>O </c><c>   2</c></rc>
    <rc><c>O </c><c>   2</c></rc>
    <rc><c>O </c><c>   2</c></rc>
    <rc><c>O </c><c>   2</c></rc>
    <rc><c>O </c><c>   2</c></rc>
    <rc><c>O </c><c>   2</c></rc>
    <rc><c>O </c><c>   2</c></rc>
    <rc><c>O </c><c>   2</c></rc>
    <rc><c>O </c><c>   2</c></rc>
    <rc><c>O </c><c>   2</c></rc>
    <rc><c>O </c><c>   2</c></rc>
    <rc><c>Pt</c><c>   3</c></rc>
    <rc><c>Pt</c><c>   3</c></rc>
    <rc><c>Pt</c><c>   3</c></rc>
    <rc><c>Pt</c><c>   3</c></rc>
    <rc><c>Pt</c><c>   3</c></rc>
    <rc><c>Pt</c><c>   3</c></rc>
    <rc><c>Pt</c><c>   3</c></rc>
    <rc><c>Pt</c><c>   3</c></rc>
    <rc><c>Pt</c><c>   3</c></rc>
    <rc><c>Pt</c><c>   3</c></rc>
    <rc><c>Pt</c><c>   3</c></rc>
    <rc><c>Pt</c><c>   3</c></rc>
    <rc><c>Pt</c><c>   3</c></rc>
    <rc><c>Pt</c><c>   3</c></rc>
    <rc><c>Pt</c><c>   3</c></rc>
    <rc><c>Pt</c><c>   3</c></rc>
    <rc><c>Pt</c><c>   3</c></rc>
    <rc><c>Pt</c><c>   3</c></rc>
    <rc><c>Pt</c><c>   3</c></rc>
    <rc><c>Pt</c><c>   3</c></rc>
    <rc><c>Pt</c><c>   3</c></rc>
    <rc><c>Pt</c><c>   3</c></rc>
    <rc><c>Pt</c><c>   3</c></rc>
    <rc><c>Pt</c><c>   3</c></rc>
    <rc><c>Pt</c><c>   3</c></rc>
    <rc><c>Pt</c><c>   3</c></rc>
    <rc><c>Pt</c><c>   3</c></rc>
    <rc><c>Pt</c><c>   3</c></rc>
    <rc><c>Pt</c><c>   3</c></rc>
    <rc><c>Pt</c><c>   3</c></rc>
    <rc><c>Pt</c><c>   3</c></rc>
    <rc><c>Pt</c><c>   3</c></rc>
    <rc><c>Pt</c><c>   3</c></rc>
    <rc><c>Pt</c><c>   3</c></rc>
    <rc><c>Pt</c><c>   3</c></rc>
    <rc><c>Pt</c><c>   3</c></rc>
   </set>
  </array>
  <array name="atomtypes" >
   <dimension dim="1">type</dimension>
   <field type="int">atomspertype</field>
   <field type="string">element</field>
   <field>mass</field>
   <field>valence</field>
   <field type="string">pseudopotential</field>
   <set>
    <rc><c>  48</c><c>H </c><c>      1.00000000</c><c>      1.00000000</c><c>  PAW_PBE H 15Jun2001                   </c></rc>
    <rc><c>  24</c><c>O </c><c>     16.00000000</c><c>      6.00000000</c><c>  PAW_PBE O 08Apr2002                   </c></rc>
    <rc><c>  36</c><c>Pt</c><c>    195.08000000</c><c>     10.00000000</c><c>  PAW_PBE Pt 04Feb2005                  </c></rc>
   </set>
  </array>
 </atominfo>
 <structure name="initialpos" >
  <crystal>
   <varray name="basis" >
    <v>       8.34588864       0.00000000       0.00000000 </v>
    <v>       0.00000000       9.63700211       0.00000000 </v>
    <v>       0.00000000       0.00000000      32.54292636 </v>
   </varray>
   <i name="volume">   2617.40629817 </i>
   <varray name="rec_basis" >
    <v>       0.11981948       0.00000000       0.00000000 </v>
    <v>       0.00000000       0.10376671       0.00000000 </v>
    <v>       0.00000000       0.00000000       0.03072864 </v>
   </varray>
  </crystal>
  <varray name="positions" >
   <v>       0.88819913       0.25519689       0.49554789 </v>
   <v>       0.13893692       0.32478006       0.49276188 </v>
   <v>       0.48008136       0.49361145       0.50160803 </v>
   <v>       0.72398628       0.03530633       0.50337270 </v>
   <v>       0.16435832       0.06952922       0.49330892 </v>
   <v>       0.27396297       0.00497456       0.45258100 </v>
   <v>       0.77506020       0.22390831       0.54807091 </v>
   <v>       0.71356446       0.30935126       0.50932166 </v>
   <v>       0.00826878       0.18614954       0.64299855 </v>
   <v>       0.97581070       0.17440149       0.50271615 </v>
   <v>       0.45813395       0.47476897       0.60996893 </v>
   <v>       0.56422917       0.47471351       0.57012460 </v>
   <v>       0.17495878       0.39848533       0.62352628 </v>
   <v>       0.13527348       0.05999926       0.62052729 </v>
   <v>       0.68461730       0.13843514       0.60812568 </v>
   <v>       0.68315189       0.30253153       0.60827643 </v>
   <v>       0.14232198       0.13879974       0.72243163 </v>
   <v>       0.08643328       0.18999023       0.78089344 </v>
   <v>       0.49889247       0.46605956       0.72625816 </v>
   <v>       0.84644013       0.98560164       0.74879916 </v>
   <v>       0.21356153       0.39580279       0.72141319 </v>
   <v>       0.27042086       0.88241815       0.68306175 </v>
   <v>       0.76029185       0.21592771       0.78083577 </v>
   <v>       0.71229798       0.30308456       0.74240864 </v>
   <v>       0.88886613       0.76204308       0.49546342 </v>
   <v>       0.13839195       0.83207279       0.49286177 </v>
   <v>       0.46058085       0.08813360       0.49181850 </v>
   <v>       0.64673520       0.56701486       0.50903279 </v>
   <v>       0.20756211       0.59008676       0.48845286 </v>
   <v>       0.27175725       0.50651762       0.45162263 </v>
   <v>       0.77540454       0.73105150       0.54805236 </v>
   <v>       0.71353934       0.81948542       0.50904672 </v>
   <v>       0.00547551       0.68914140       0.64117947 </v>
   <v>       0.97527615       0.68123584       0.50269113 </v>
   <v>       0.45644945       0.07459665       0.61012139 </v>
   <v>       0.56337557       0.07497412       0.56960043 </v>
   <v>       0.18004588       0.89030348       0.62389276 </v>
   <v>       0.17584498       0.56281860       0.62331588 </v>
   <v>       0.68399009       0.64420677       0.60786039 </v>
   <v>       0.68248813       0.80964201       0.60826435 </v>
   <v>       0.14347312       0.64498656       0.72250771 </v>
   <v>       0.08711711       0.69686556       0.78089017 </v>
   <v>       0.51536635       0.05601434       0.72868662 </v>
   <v>       0.66057367       0.54741147       0.73423476 </v>
   <v>       0.16191548       0.01323682       0.72742535 </v>
   <v>       0.27095283       0.48152163       0.68397254 </v>
   <v>       0.76027712       0.72291126       0.78085364 </v>
   <v>       0.71190309       0.80921084       0.74243049 </v>
   <v>       0.09468779       0.23329609       0.48770028 </v>
   <v>       0.58923355       0.47973289       0.51314732 </v>
   <v>       0.26929141       0.50511750       0.48175541 </v>
   <v>       0.76806585       0.22603208       0.51808252 </v>
   <v>       0.14340761       0.25607308       0.75420478 </v>
   <v>       0.57063887       0.47369536       0.60040692 </v>
   <v>       0.24337804       0.48082851       0.62762375 </v>
   <v>       0.75735696       0.22496081       0.60303055 </v>
   <v>       0.13431433       0.29750847       0.68591857 </v>
   <v>       0.61507701       0.45478486       0.73068634 </v>
   <v>       0.33028884       0.86574698       0.70914706 </v>
   <v>       0.76968095       0.21705757       0.75121925 </v>
   <v>       0.09764549       0.73682700       0.48768350 </v>
   <v>       0.52973886       0.10803687       0.52877670 </v>
   <v>       0.31407253       0.11119197       0.47521594 </v>
   <v>       0.76721623       0.72671733       0.51811397 </v>
   <v>       0.14453352       0.76214952       0.75431124 </v>
   <v>       0.56643076       0.06705689       0.60047980 </v>
   <v>       0.27997786       0.09002353       0.63010144 </v>
   <v>       0.75105172       0.72735037       0.60301989 </v>
   <v>       0.13400398       0.80787695       0.68758282 </v>
   <v>       0.41320618       0.11851599       0.71343903 </v>
   <v>       0.27337655       0.48277814       0.71442627 </v>
   <v>       0.76796344       0.72379009       0.75098538 </v>
   <v>       0.16666667       0.08333333       0.21910656 </v>
   <v>       0.50000000       0.08333333       0.21910656 </v>
   <v>       0.83333333       0.08333333       0.21910656 </v>
   <v>       0.00000000       0.33333333       0.21910656 </v>
   <v>       0.33333333       0.33333333       0.21910656 </v>
   <v>       0.66666667       0.33333333       0.21910656 </v>
   <v>       0.16666667       0.58333333       0.21910656 </v>
   <v>       0.50000000       0.58333333       0.21910656 </v>
   <v>       0.83333333       0.58333333       0.21910656 </v>
   <v>       0.00000000       0.83333333       0.21910656 </v>
   <v>       0.33333333       0.83333333       0.21910656 </v>
   <v>       0.66666667       0.83333333       0.21910656 </v>
   <v>       0.00000000       0.16666667       0.28890555 </v>
   <v>       0.33333333       0.16666667       0.28890555 </v>
   <v>       0.66666667       0.16666667       0.28890555 </v>
   <v>       0.16666667       0.41666667       0.28890555 </v>
   <v>       0.50000000       0.41666667       0.28890555 </v>
   <v>       0.83333333       0.41666667       0.28890555 </v>
   <v>       0.00000000       0.66666667       0.28890555 </v>
   <v>       0.33333333       0.66666667       0.28890555 </v>
   <v>       0.66666667       0.66666667       0.28890555 </v>
   <v>       0.16666667       0.91666667       0.28890555 </v>
   <v>       0.50000000       0.91666667       0.28890555 </v>
   <v>       0.83333333       0.91666667       0.28890555 </v>
   <v>       0.00000000       0.00000000       0.35870453 </v>
   <v>       0.33333333       0.00000000       0.35870453 </v>
   <v>       0.66666667       0.00000000       0.35870453 </v>
   <v>       0.16666667       0.25000000       0.35870453 </v>
   <v>       0.50000000       0.25000000       0.35870453 </v>
   <v>       0.83333333       0.25000000       0.35870453 </v>
   <v>       0.00000000       0.50000000       0.35870453 </v>
   <v>       0.33333333       0.50000000       0.35870453 </v>
   <v>       0.66666667       0.50000000       0.35870453 </v>
   <v>       0.16666667       0.75000000       0.35870453 </v>
   <v>       0.50000000       0.75000000       0.35870453 </v>
   <v>       0.83333333       0.75000000       0.35870453 </v>
  </varray>
  <varray name="selective"  type="logical" >
   <v type="logical" >  T  T  T </v>
   <v type="logical" >  T  T  T </v>
   <v type="logical" >  T  T  T </v>
   <v type="logical" >  T  T  T </v>
   <v type="logical" >  T  T  T </v>
   <v type="logical" >  T  T  T </v>
   <v type="logical" >  T  T  T </v>
   <v type="logical" >  T  T  T </v>
   <v type="logical" >  T  T  T </v>
   <v type="logical" >  T  T  T </v>
   <v type="logical" >  T  T  T </v>
   <v type="logical" >  T  T  T </v>
   <v type="logical" >  T  T  T </v>
   <v type="logical" >  T  T  T </v>
   <v type="logical" >  T  T  T </v>
   <v type="logical" >  T  T  T </v>
   <v type="logical" >  T  T  T </v>
   <v type="logical" >  T  T  T </v>
   <v type="logical" >  T  T  T </v>
   <v type="logical" >  T  T  T </v>
   <v type="logical" >  T  T  T </v>
   <v type="logical" >  T  T  T </v>
   <v type="logical" >  T  T  T </v>
   <v type="logical" >  T  T  T </v>
   <v type="logical" >  T  T  T </v>
   <v type="logical" >  T  T  T </v>
   <v type="logical" >  T  T  T </v>
   <v type="logical" >  T  T  T </v>
   <v type="logical" >  T  T  T </v>
   <v type="logical" >  T  T  T </v>
   <v type="logical" >  T  T  T </v>
   <v type="logical" >  T  T  T </v>
   <v type="logical" >  T  T  T </v>
   <v type="logical" >  T  T  T </v>
   <v type="logical" >  T  T  T </v>
   <v type="logical" >  T  T  T </v>
   <v type="logical" >  T  T  T </v>
   <v type="logical" >  T  T  T </v>
   <v type="logical" >  T  T  T </v>
   <v type="logical" >  T  T  T </v>
   <v type="logical" >  T  T  T </v>
   <v type="logical" >  T  T  T </v>
   <v type="logical" >  T  T  T </v>
   <v type="logical" >  T  T  T </v>
   <v type="logical" >  T  T  T </v>
   <v type="logical" >  T  T  T </v>
   <v type="logical" >  T  T  T </v>
   <v type="logical" >  T  T  T </v>
   <v type="logical" >  T  T  T </v>
   <v type="logical" >  T  T  T </v>
   <v type="logical" >  T  T  T </v>
   <v type="logical" >  T  T  T </v>
   <v type="logical" >  T  T  T </v>
   <v type="logical" >  T  T  T </v>
   <v type="logical" >  T  T  T </v>
   <v type="logical" >  T  T  T </v>
   <v type="logical" >  T  T  T </v>
   <v type="logical" >  T  T  T </v>
   <v type="logical" >  T  T  T </v>
   <v type="logical" >  T  T  T </v>
   <v type="logical" >  T  T  T </v>
   <v type="logical" >  T  T  T </v>
   <v type="logical" >  T  T  T </v>
   <v type="logical" >  T  T  T </v>
   <v type="logical" >  T  T  T </v>
   <v type="logical" >  T  T  T </v>
   <v type="logical" >  T  T  T </v>
   <v type="logical" >  T  T  T </v>
   <v type="logical" >  T  T  T </v>
   <v type="logical" >  T  T  T </v>
   <v type="logical" >  T  T  T </v>
   <v type="logical" >  T  T  T </v>
   <v type="logical" >  F  F  F </v>
   <v type="logical" >  F  F  F </v>
   <v type="logical" >  F  F  F </v>
   <v type="logical" >  F  F  F </v>
   <v type="logical" >  F  F  F </v>
   <v type="logical" >  F  F  F </v>
   <v type="logical" >  F  F  F </v>
   <v type="logical" >  F  F  F </v>
   <v type="logical" >  F  F  F </v>
   <v type="logical" >  F  F  F </v>
   <v type="logical" >  F  F  F </v>
   <v type="logical" >  F  F  F </v>
   <v type="logical" >  F  F  F </v>
   <v type="logical" >  F  F  F </v>
   <v type="logical" >  F  F  F </v>
   <v type="logical" >  F  F  F </v>
   <v type="logical" >  F  F  F </v>
   <v type="logical" >  F  F  F </v>
   <v type="logical" >  F  F  F </v>
   <v type="logical" >  F  F  F </v>
   <v type="logical" >  F  F  F </v>
   <v type="logical" >  F  F  F </v>
   <v type="logical" >  F  F  F </v>
   <v type="logical" >  F  F  F </v>
   <v type="logical" >  T  T  T </v>
   <v type="logical" >  T  T  T </v>
   <v type="logical" >  T  T  T </v>
   <v type="logical" >  T  T  T </v>
   <v type="logical" >  T  T  T </v>
   <v type="logical" >  T  T  T </v>
   <v type="logical" >  T  T  T </v>
   <v type="logical" >  T  T  T </v>
   <v type="logical" >  T  T  T </v>
   <v type="logical" >  T  T  T </v>
   <v type="logical" >  T  T  T </v>
   <v type="logical" >  T  T  T </v>
  </varray>
  <nose>
   <v>      -3.00000000       0.00000000       0.00010000       0.00010000 </v>
  </nose>
 </structure>
 <calculation>
  <scstep>
   <time name="dav">   26.91   26.96</time>
   <time name="total">   27.06   27.12</time>
   <dipole>
    <v name="dipole">      0.00000000       0.00000000      -0.00025943 </v>
    <i name="Tr[quadrupol]">  -7676.19544250 </i>
    <i name="Echarged">      0.00000000 </i>
    <i name="Edipol_quadrupol">      0.00000000 </i>
    <i name="Eion">      0.00000000 </i>
   </dipole>
   <energy>
    <i name="alphaZ">    863.55601046 </i>
    <i name="ewald"> 164004.65450766 </i>
    <i name="hartreedc">-200915.66602860 </i>
    <i name="XCdc">    872.45889287 </i>
    <i name="pawpsdc">  33505.36643195 </i>
    <i name="pawaedc"> -32489.60540758 </i>
    <i name="eentropy">     -0.12444036 </i>
    <i name="bandstr">    648.32210348 </i>
    <i name="atom">  37193.95212048 </i>
    <i name="e_fr_energy">   3682.91419036 </i>
    <i name="e_wo_entrp">   3683.03863072 </i>
    <i name="e_0_energy">   3682.97641054 </i>
   </energy>
  </scstep>
  <scstep>
   <time name="dav">   31.23   31.27</time>
   <time name="total">   31.24   31.27</time>
   <dipole>
    <v name="dipole">      0.00000000       0.00000000      -0.00025943 </v>
    <i name="Tr[quadrupol]">  -7676.19544250 </i>
    <i name="Echarged">      0.00000000 </i>
    <i name="Edipol_quadrupol">      0.00000000 </i>
    <i name="Eion">      0.00000000 </i>
   </dipole>
   <energy>
    <i name="e_fr_energy">    -91.49755524 </i>
    <i name="e_wo_entrp">    -91.26199619 </i>
    <i name="e_0_energy">    -91.37977571 </i>
   </energy>
  </scstep>
  <scstep>
   <time name="dav">   29.95   29.99</time>
   <time name="total">   29.96   30.00</time>
   <dipole>
    <v name="dipole">      0.00000000       0.00000000      -0.00025943 </v>
    <i name="Tr[quadrupol]">  -7676.19544250 </i>
    <i name="Echarged">      0.00000000 </i>
    <i name="Edipol_quadrupol">      0.00000000 </i>
    <i name="Eion">      0.00000000 </i>
   </dipole>
   <energy>
    <i name="e_fr_energy">   -524.82767702 </i>
    <i name="e_wo_entrp">   -524.37633557 </i>
    <i name="e_0_energy">   -524.60200630 </i>
   </energy>
  </scstep>
  <scstep>
   <time name="dav">   31.34   31.38</time>
   <time name="total">   31.35   31.39</time>
   <dipole>
    <v name="dipole">      0.00000000       0.00000000      -0.00025943 </v>
    <i name="Tr[quadrupol]">  -7676.19544250 </i>
    <i name="Echarged">      0.00000000 </i>
    <i name="Edipol_quadrupol">      0.00000000 </i>
    <i name="Eion">      0.00000000 </i>
   </dipole>
   <energy>
    <i name="e_fr_energy">   -541.42605820 </i>
    <i name="e_wo_entrp">   -540.93428732 </i>
    <i name="e_0_energy">   -541.18017276 </i>
   </energy>
  </scstep>
  <scstep>
   <time name="dav">   34.47   34.51</time>
   <time name="total">   35.28   35.32</time>
   <dipole>
    <v name="dipole">      0.00000000       0.00000000      -0.00025943 </v>
    <i name="Tr[quadrupol]">  -7676.19544250 </i>
    <i name="Echarged">      0.00000000 </i>
    <i name="Edipol_quadrupol">      0.00000000 </i>
    <i name="Eion">      0.00000000 </i>
   </dipole>
   <energy>
    <i name="e_fr_energy">   -541.99519026 </i>
    <i name="e_wo_entrp">   -541.50099412 </i>
    <i name="e_0_energy">   -541.74809219 </i>
   </energy>
  </scstep>
  <scstep>
   <time name="dav">   36.79   36.84</time>
   <time name="total">   37.70   37.75</time>
   <dipole>
    <v name="dipole">      0.00000000       0.00000000      17.09274593 </v>
    <i name="Tr[quadrupol]">  -7695.93498798 </i>
    <i name="Echarged">      0.00000000 </i>
    <i name="Edipol_quadrupol">      0.00000000 </i>
    <i name="Eion">      0.00000000 </i>
   </dipole>
   <energy>
    <i name="e_fr_energy">  -2961.93744896 </i>
    <i name="e_wo_entrp">  -2961.86079038 </i>
    <i name="e_0_energy">  -2961.89911967 </i>
   </energy>
  </scstep>
  <scstep>
   <time name="dav">   29.01   29.05</time>
   <time name="total">   29.93   29.96</time>
   <dipole>
    <v name="dipole">      0.00000000       0.00000000       8.53947358 </v>
    <i name="Tr[quadrupol]">  -7673.82231737 </i>
    <i name="Echarged">      0.00000000 </i>
    <i name="Edipol_quadrupol">      0.00000000 </i>
    <i name="Eion">      0.00000000 </i>
   </dipole>
   <energy>
    <i name="e_fr_energy">  -1385.90551294 </i>
    <i name="e_wo_entrp">  -1385.77796094 </i>
    <i name="e_0_energy">  -1385.84173694 </i>
   </energy>
  </scstep>
  <scstep>
   <time name="dav">   34.14   34.18</time>
   <time name="total">   35.08   35.12</time>
   <dipole>
    <v name="dipole">      0.00000000       0.00000000      -2.49345918 </v>
    <i name="Tr[quadrupol]">  -7716.38140294 </i>
    <i name="Echarged">      0.00000000 </i>
    <i name="Edipol_quadrupol">      0.00000000 </i>
    <i name="Eion">      0.00000000 </i>
   </dipole>
   <energy>
    <i name="e_fr_energy">   -297.13520545 </i>
    <i name="e_wo_entrp">   -296.74159208 </i>
    <i name="e_0_energy">   -296.93839876 </i>
   </energy>
  </scstep>
  <scstep>
   <time name="dav">   33.57   33.62</time>
   <time name="total">   34.49   34.54</time>
   <dipole>
    <v name="dipole">      0.00000000       0.00000000       6.14156197 </v>
    <i name="Tr[quadrupol]">  -7705.55733561 </i>
    <i name="Echarged">      0.00000000 </i>
    <i name="Edipol_quadrupol">      0.00000000 </i>
    <i name="Eion">      0.00000000 </i>
   </dipole>
   <energy>
    <i name="e_fr_energy">   -614.62278892 </i>
    <i name="e_wo_entrp">   -614.55603792 </i>
    <i name="e_0_energy">   -614.58941342 </i>
   </energy>
  </scstep>
  <scstep>
   <time name="dav">   32.78   32.82</time>
   <time name="total">   33.72   33.77</time>
   <dipole>
    <v name="dipole">      0.00000000       0.00000000       3.20762507 </v>
    <i name="Tr[quadrupol]">  -7700.32407167 </i>
    <i name="Echarged">      0.00000000 </i>
    <i name="Edipol_quadrupol">      0.00000000 </i>
    <i name="Eion">      0.00000000 </i>
   </dipole>
   <energy>
    <i name="e_fr_energy">   -497.01140188 </i>
    <i name="e_wo_entrp">   -496.78083572 </i>
    <i name="e_0_energy">   -496.89611880 </i>
   </energy>
  </scstep>
  <scstep>
   <time name="dav">   32.40   32.44</time>
   <time name="total">   33.33   33.37</time>
   <dipole>
    <v name="dipole">      0.00000000       0.00000000       4.33021126 </v>
    <i name="Tr[quadrupol]">  -7706.19795554 </i>
    <i name="Echarged">      0.00000000 </i>
    <i name="Edipol_quadrupol">      0.00000000 </i>
    <i name="Eion">      0.00000000 </i>
   </dipole>
   <energy>
    <i name="e_fr_energy">   -494.94558964 </i>
    <i name="e_wo_entrp">   -494.42314676 </i>
    <i name="e_0_energy">   -494.68436820 </i>
   </energy>
  </scstep>
  <scstep>
   <time name="dav">   30.93   30.97</time>
   <time name="total">   31.89   31.93</time>
   <dipole>
    <v name="dipole">      0.00000000       0.00000000       3.07939859 </v>
    <i name="Tr[quadrupol]">  -7695.01537337 </i>
    <i name="Echarged">      0.00000000 </i>
    <i name="Edipol_quadrupol">      0.00000000 </i>
    <i name="Eion">      0.00000000 </i>
   </dipole>
   <energy>
    <i name="e_fr_energy">   -511.17199990 </i>
    <i name="e_wo_entrp">   -510.98348438 </i>
    <i name="e_0_energy">   -511.07774214 </i>
   </energy>
  </scstep>
  <scstep>
   <time name="dav">   31.77   31.84</time>
   <time name="total">   32.71   32.78</time>
   <dipole>
    <v name="dipole">      0.00000000       0.00000000       3.82816021 </v>
    <i name="Tr[quadrupol]">  -7712.31997095 </i>
    <i name="Echarged">      0.00000000 </i>
    <i name="Edipol_quadrupol">      0.00000000 </i>
    <i name="Eion">      0.00000000 </i>
   </dipole>
   <energy>
    <i name="e_fr_energy">   -491.63061889 </i>
    <i name="e_wo_entrp">   -491.26904501 </i>
    <i name="e_0_energy">   -491.44983195 </i>
   </energy>
  </scstep>
  <scstep>
   <time name="dav">   31.66   31.70</time>
   <time name="total">   32.60   32.65</time>
   <dipole>
    <v name="dipole">      0.00000000       0.00000000       3.20925488 </v>
    <i name="Tr[quadrupol]">  -7713.26254741 </i>
    <i name="Echarged">      0.00000000 </i>
    <i name="Edipol_quadrupol">      0.00000000 </i>
    <i name="Eion">      0.00000000 </i>
   </dipole>
   <energy>
    <i name="e_fr_energy">   -492.22196081 </i>
    <i name="e_wo_entrp">   -491.81927624 </i>
    <i name="e_0_energy">   -492.02061853 </i>
   </energy>
  </scstep>
  <scstep>
   <time name="dav">   32.70   32.74</time>
   <time name="total">   33.66   33.70</time>
   <dipole>
    <v name="dipole">      0.00000000       0.00000000       2.87588045 </v>
    <i name="Tr[quadrupol]">  -7715.66640041 </i>
    <i name="Echarged">      0.00000000 </i>
    <i name="Edipol_quadrupol">      0.00000000 </i>
    <i name="Eion">      0.00000000 </i>
   </dipole>
   <energy>
    <i name="e_fr_energy">   -493.49676402 </i>
    <i name="e_wo_entrp">   -492.98309699 </i>
    <i name="e_0_energy">   -493.23993050 </i>
   </energy>
  </scstep>
  <scstep>
   <time name="dav">   33.81   33.86</time>
   <time name="total">   34.77   34.82</time>
   <dipole>
    <v name="dipole">      0.00000000       0.00000000       2.28168478 </v>
    <i name="Tr[quadrupol]">  -7720.64984773 </i>
    <i name="Echarged">      0.00000000 </i>
    <i name="Edipol_quadrupol">      0.00000000 </i>
    <i name="Eion">      0.00000000 </i>
   </dipole>
   <energy>
    <i name="e_fr_energy">   -496.43349525 </i>
    <i name="e_wo_entrp">   -495.88937422 </i>
    <i name="e_0_energy">   -496.16143474 </i>
   </energy>
  </scstep>
  <scstep>
   <time name="dav">   31.92   31.96</time>
   <time name="total">   32.88   32.92</time>
   <dipole>
    <v name="dipole">      0.00000000       0.00000000       2.04075462 </v>
    <i name="Tr[quadrupol]">  -7722.17945088 </i>
    <i name="Echarged">      0.00000000 </i>
    <i name="Edipol_quadrupol">      0.00000000 </i>
    <i name="Eion">      0.00000000 </i>
   </dipole>
   <energy>
    <i name="e_fr_energy">   -495.91474599 </i>
    <i name="e_wo_entrp">   -495.43203945 </i>
    <i name="e_0_energy">   -495.67339272 </i>
   </energy>
  </scstep>
  <scstep>
   <time name="dav">   30.31   30.34</time>
   <time name="total">   31.27   31.31</time>
   <dipole>
    <v name="dipole">      0.00000000       0.00000000       1.66683429 </v>
    <i name="Tr[quadrupol]">  -7726.96967228 </i>
    <i name="Echarged">      0.00000000 </i>
    <i name="Edipol_quadrupol">      0.00000000 </i>
    <i name="Eion">      0.00000000 </i>
   </dipole>
   <energy>
    <i name="e_fr_energy">   -496.53435710 </i>
    <i name="e_wo_entrp">   -495.98532323 </i>
    <i name="e_0_energy">   -496.25984017 </i>
   </energy>
  </scstep>
  <scstep>
   <time name="dav">   33.44   33.47</time>
   <time name="total">   34.39   34.43</time>
   <dipole>
    <v name="dipole">      0.00000000       0.00000000       1.54617558 </v>
    <i name="Tr[quadrupol]">  -7728.91303385 </i>
    <i name="Echarged">      0.00000000 </i>
    <i name="Edipol_quadrupol">      0.00000000 </i>
    <i name="Eion">      0.00000000 </i>
   </dipole>
   <energy>
    <i name="e_fr_energy">   -493.64223996 </i>
    <i name="e_wo_entrp">   -493.13402185 </i>
    <i name="e_0_energy">   -493.38813091 </i>
   </energy>
  </scstep>
  <scstep>
   <time name="dav">   29.86   29.89</time>
   <time name="total">   30.82   30.85</time>
   <dipole>
    <v name="dipole">      0.00000000       0.00000000       1.54301835 </v>
    <i name="Tr[quadrupol]">  -7728.63849826 </i>
    <i name="Echarged">      0.00000000 </i>
    <i name="Edipol_quadrupol">      0.00000000 </i>
    <i name="Eion">      0.00000000 </i>
   </dipole>
   <energy>
    <i name="e_fr_energy">   -492.25681288 </i>
    <i name="e_wo_entrp">   -491.73166666 </i>
    <i name="e_0_energy">   -491.99423977 </i>
   </energy>
  </scstep>
  <scstep>
   <time name="dav">   30.71   30.73</time>
   <time name="total">   31.67   31.70</time>
   <dipole>
    <v name="dipole">      0.00000000       0.00000000       1.35586555 </v>
    <i name="Tr[quadrupol]">  -7729.87746782 </i>
    <i name="Echarged">      0.00000000 </i>
    <i name="Edipol_quadrupol">      0.00000000 </i>
    <i name="Eion">      0.00000000 </i>
   </dipole>
   <energy>
    <i name="e_fr_energy">   -492.46455911 </i>
    <i name="e_wo_entrp">   -491.91265585 </i>
    <i name="e_0_energy">   -492.18860748 </i>
   </energy>
  </scstep>
  <scstep>
   <time name="dav">   34.51   34.54</time>
   <time name="total">   35.46   35.50</time>
   <dipole>
    <v name="dipole">      0.00000000       0.00000000       1.17451539 </v>
    <i name="Tr[quadrupol]">  -7728.49120895 </i>
    <i name="Echarged">      0.00000000 </i>
    <i name="Edipol_quadrupol">      0.00000000 </i>
    <i name="Eion">      0.00000000 </i>
   </dipole>
   <energy>
    <i name="e_fr_energy">   -488.02231868 </i>
    <i name="e_wo_entrp">   -487.50517939 </i>
    <i name="e_0_energy">   -487.76374904 </i>
   </energy>
  </scstep>
  <scstep>
   <time name="dav">   29.64   29.66</time>
   <time name="total">   30.59   30.62</time>
   <dipole>
    <v name="dipole">      0.00000000       0.00000000       1.06499029 </v>
    <i name="Tr[quadrupol]">  -7728.85717783 </i>
    <i name="Echarged">      0.00000000 </i>
    <i name="Edipol_quadrupol">      0.00000000 </i>
    <i name="Eion">      0.00000000 </i>
   </dipole>
   <energy>
    <i name="e_fr_energy">   -487.29622380 </i>
    <i name="e_wo_entrp">   -486.76796297 </i>
    <i name="e_0_energy">   -487.03209338 </i>
   </energy>
  </scstep>
  <scstep>
   <time name="dav">   31.45   31.48</time>
   <time name="total">   32.41   32.44</time>
   <dipole>
    <v name="dipole">      0.00000000       0.00000000       1.02287999 </v>
    <i name="Tr[quadrupol]">  -7728.93130338 </i>
    <i name="Echarged">      0.00000000 </i>
    <i name="Edipol_quadrupol">      0.00000000 </i>
    <i name="Eion">      0.00000000 </i>
   </dipole>
   <energy>
    <i name="e_fr_energy">   -486.85371276 </i>
    <i name="e_wo_entrp">   -486.26621702 </i>
    <i name="e_0_energy">   -486.55996489 </i>
   </energy>
  </scstep>
  <scstep>
   <time name="dav">   35.24   35.27</time>
   <time name="total">   36.19   36.23</time>
   <dipole>
    <v name="dipole">      0.00000000       0.00000000       0.77897246 </v>
    <i name="Tr[quadrupol]">  -7728.53953778 </i>
    <i name="Echarged">      0.00000000 </i>
    <i name="Edipol_quadrupol">      0.00000000 </i>
    <i name="Eion">      0.00000000 </i>
   </dipole>
   <energy>
    <i name="e_fr_energy">   -484.54771370 </i>
    <i name="e_wo_entrp">   -484.03954755 </i>
    <i name="e_0_energy">   -484.29363062 </i>
   </energy>
  </scstep>
  <scstep>
   <time name="dav">   29.12   29.15</time>
   <time name="total">   30.08   30.11</time>
   <dipole>
    <v name="dipole">      0.00000000       0.00000000       0.70308556 </v>
    <i name="Tr[quadrupol]">  -7728.53406493 </i>
    <i name="Echarged">      0.00000000 </i>
    <i name="Edipol_quadrupol">      0.00000000 </i>
    <i name="Eion">      0.00000000 </i>
   </dipole>
   <energy>
    <i name="e_fr_energy">   -483.57365486 </i>
    <i name="e_wo_entrp">   -483.04352706 </i>
    <i name="e_0_energy">   -483.30859096 </i>
   </energy>
  </scstep>
  <scstep>
   <time name="dav">   33.54   33.57</time>
   <time name="total">   34.50   34.53</time>
   <dipole>
    <v name="dipole">      0.00000000       0.00000000       0.65495579 </v>
    <i name="Tr[quadrupol]">  -7727.87089548 </i>
    <i name="Echarged">      0.00000000 </i>
    <i name="Edipol_quadrupol">      0.00000000 </i>
    <i name="Eion">      0.00000000 </i>
   </dipole>
   <energy>
    <i name="e_fr_energy">   -482.37982462 </i>
    <i name="e_wo_entrp">   -481.81541259 </i>
    <i name="e_0_energy">   -482.09761861 </i>
   </energy>
  </scstep>
  <scstep>
   <time name="dav">   33.28   33.31</time>
   <time name="total">   34.24   34.28</time>
   <dipole>
    <v name="dipole">      0.00000000       0.00000000       0.55817353 </v>
    <i name="Tr[quadrupol]">  -7727.47162782 </i>
    <i name="Echarged">      0.00000000 </i>
    <i name="Edipol_quadrupol">      0.00000000 </i>
    <i name="Eion">      0.00000000 </i>
   </dipole>
   <energy>
    <i name="e_fr_energy">   -481.47568427 </i>
    <i name="e_wo_entrp">   -480.91145250 </i>
    <i name="e_0_energy">   -481.19356838 </i>
   </energy>
  </scstep>
  <scstep>
   <time name="dav">   33.55   33.58</time>
   <time name="total">   34.51   34.55</time>
   <dipole>
    <v name="dipole">      0.00000000       0.00000000       0.44037333 </v>
    <i name="Tr[quadrupol]">  -7726.49572106 </i>
    <i name="Echarged">      0.00000000 </i>
    <i name="Edipol_quadrupol">      0.00000000 </i>
    <i name="Eion">      0.00000000 </i>
   </dipole>
   <energy>
    <i name="e_fr_energy">   -480.47317383 </i>
    <i name="e_wo_entrp">   -479.90809383 </i>
    <i name="e_0_energy">   -480.19063383 </i>
   </energy>
  </scstep>
  <scstep>
   <time name="dav">   32.35   32.39</time>
   <time name="total">   33.31   33.35</time>
   <dipole>
    <v name="dipole">      0.00000000       0.00000000       0.36438519 </v>
    <i name="Tr[quadrupol]">  -7724.49226660 </i>
    <i name="Echarged">      0.00000000 </i>
    <i name="Edipol_quadrupol">      0.00000000 </i>
    <i name="Eion">      0.00000000 </i>
   </dipole>
   <energy>
    <i name="e_fr_energy">   -479.24667644 </i>
    <i name="e_wo_entrp">   -478.67902044 </i>
    <i name="e_0_energy">   -478.96284844 </i>
   </energy>
  </scstep>
  <scstep>
   <time name="dav">   33.84   33.88</time>
   <time name="total">   34.79   34.84</time>
   <dipole>
    <v name="dipole">      0.00000000       0.00000000       0.24941190 </v>
    <i name="Tr[quadrupol]">  -7721.70455429 </i>
    <i name="Echarged">      0.00000000 </i>
    <i name="Edipol_quadrupol">      0.00000000 </i>
    <i name="Eion">      0.00000000 </i>
   </dipole>
   <energy>
    <i name="e_fr_energy">   -477.62610864 </i>
    <i name="e_wo_entrp">   -477.10125726 </i>
    <i name="e_0_energy">   -477.36368295 </i>
   </energy>
  </scstep>
  <scstep>
   <time name="dav">   30.81   30.84</time>
   <time name="total">   31.77   31.81</time>
   <dipole>
    <v name="dipole">      0.00000000       0.00000000       0.19699097 </v>
    <i name="Tr[quadrupol]">  -7720.49686180 </i>
    <i name="Echarged">      0.00000000 </i>
    <i name="Edipol_quadrupol">      0.00000000 </i>
    <i name="Eion">      0.00000000 </i>
   </dipole>
   <energy>
    <i name="e_fr_energy">   -476.84020927 </i>
    <i name="e_wo_entrp">   -476.29627028 </i>
    <i name="e_0_energy">   -476.56823978 </i>
   </energy>
  </scstep>
  <scstep>
   <time name="dav">   31.56   31.60</time>
   <time name="total">   32.52   32.56</time>
   <dipole>
    <v name="dipole">      0.00000000       0.00000000       0.17637283 </v>
    <i name="Tr[quadrupol]">  -7719.72590936 </i>
    <i name="Echarged">      0.00000000 </i>
    <i name="Edipol_quadrupol">      0.00000000 </i>
    <i name="Eion">      0.00000000 </i>
   </dipole>
   <energy>
    <i name="e_fr_energy">   -476.42667581 </i>
    <i name="e_wo_entrp">   -475.87268992 </i>
    <i name="e_0_energy">   -476.14968287 </i>
   </energy>
  </scstep>
  <scstep>
   <time name="dav">   34.96   35.01</time>
   <time name="total">   35.92   35.97</time>
   <dipole>
    <v name="dipole">      0.00000000       0.00000000      -0.01238753 </v>
    <i name="Tr[quadrupol]">  -7715.49641123 </i>
    <i name="Echarged">      0.00000000 </i>
    <i name="Edipol_quadrupol">      0.00000000 </i>
    <i name="Eion">      0.00000000 </i>
   </dipole>
   <energy>
    <i name="e_fr_energy">   -474.81352090 </i>
    <i name="e_wo_entrp">   -474.32468214 </i>
    <i name="e_0_energy">   -474.56910152 </i>
   </energy>
  </scstep>
  <scstep>
   <time name="dav">   29.80   29.84</time>
   <time name="total">   30.76   30.80</time>
   <dipole>
    <v name="dipole">      0.00000000       0.00000000      -0.06835800 </v>
    <i name="Tr[quadrupol]">  -7714.28941450 </i>
    <i name="Echarged">      0.00000000 </i>
    <i name="Edipol_quadrupol">      0.00000000 </i>
    <i name="Eion">      0.00000000 </i>
   </dipole>
   <energy>
    <i name="e_fr_energy">   -474.27507367 </i>
    <i name="e_wo_entrp">   -473.77159947 </i>
    <i name="e_0_energy">   -474.02333657 </i>
   </energy>
  </scstep>
  <scstep>
   <time name="dav">   29.81   29.85</time>
   <time name="total">   30.77   30.81</time>
   <dipole>
    <v name="dipole">      0.00000000       0.00000000      -0.06960875 </v>
    <i name="Tr[quadrupol]">  -7714.05350281 </i>
    <i name="Echarged">      0.00000000 </i>
    <i name="Edipol_quadrupol">      0.00000000 </i>
    <i name="Eion">      0.00000000 </i>
   </dipole>
   <energy>
    <i name="e_fr_energy">   -474.20754093 </i>
    <i name="e_wo_entrp">   -473.70029806 </i>
    <i name="e_0_energy">   -473.95391949 </i>
   </energy>
  </scstep>
  <scstep>
   <time name="dav">   32.32   32.36</time>
   <time name="total">   33.28   33.33</time>
   <dipole>
    <v name="dipole">      0.00000000       0.00000000      -0.10742768 </v>
    <i name="Tr[quadrupol]">  -7711.63331296 </i>
    <i name="Echarged">      0.00000000 </i>
    <i name="Edipol_quadrupol">      0.00000000 </i>
    <i name="Eion">      0.00000000 </i>
   </dipole>
   <energy>
    <i name="e_fr_energy">   -473.65008090 </i>
    <i name="e_wo_entrp">   -473.12217581 </i>
    <i name="e_0_energy">   -473.38612835 </i>
   </energy>
  </scstep>
  <scstep>
   <time name="dav">   34.07   34.11</time>
   <time name="total">   35.03   35.08</time>
   <dipole>
    <v name="dipole">      0.00000000       0.00000000      -0.21974187 </v>
    <i name="Tr[quadrupol]">  -7707.71367112 </i>
    <i name="Echarged">      0.00000000 </i>
    <i name="Edipol_quadrupol">      0.00000000 </i>
    <i name="Eion">      0.00000000 </i>
   </dipole>
   <energy>
    <i name="e_fr_energy">   -472.88264563 </i>
    <i name="e_wo_entrp">   -472.32127768 </i>
    <i name="e_0_energy">   -472.60196165 </i>
   </energy>
  </scstep>
  <scstep>
   <time name="dav">   28.72   28.75</time>
   <time name="total">   29.68   29.72</time>
   <dipole>
    <v name="dipole">      0.00000000       0.00000000      -0.25181872 </v>
    <i name="Tr[quadrupol]">  -7705.87563311 </i>
    <i name="Echarged">      0.00000000 </i>
    <i name="Edipol_quadrupol">      0.00000000 </i>
    <i name="Eion">      0.00000000 </i>
   </dipole>
   <energy>
    <i name="e_fr_energy">   -472.64701872 </i>
    <i name="e_wo_entrp">   -472.06841651 </i>
    <i name="e_0_energy">   -472.35771761 </i>
   </energy>
  </scstep>
  <scstep>
   <time name="dav">   28.25   28.29</time>
   <time name="total">   29.21   29.25</time>
   <dipole>
    <v name="dipole">      0.00000000       0.00000000      -0.25118375 </v>
    <i name="Tr[quadrupol]">  -7705.84601091 </i>
    <i name="Echarged">      0.00000000 </i>
    <i name="Edipol_quadrupol">      0.00000000 </i>
    <i name="Eion">      0.00000000 </i>
   </dipole>
   <energy>
    <i name="e_fr_energy">   -472.65139015 </i>
    <i name="e_wo_entrp">   -472.07345901 </i>
    <i name="e_0_energy">   -472.36242458 </i>
   </energy>
  </scstep>
  <scstep>
   <time name="dav">   29.36   29.40</time>
   <time name="total">   30.32   30.36</time>
   <dipole>
    <v name="dipole">      0.00000000       0.00000000      -0.24930788 </v>
    <i name="Tr[quadrupol]">  -7705.44310277 </i>
    <i name="Echarged">      0.00000000 </i>
    <i name="Edipol_quadrupol">      0.00000000 </i>
    <i name="Eion">      0.00000000 </i>
   </dipole>
   <energy>
    <i name="e_fr_energy">   -472.61582240 </i>
    <i name="e_wo_entrp">   -472.03669283 </i>
    <i name="e_0_energy">   -472.32625762 </i>
   </energy>
  </scstep>
  <scstep>
   <time name="dav">   31.66   31.70</time>
   <time name="total">   32.62   32.66</time>
   <dipole>
    <v name="dipole">      0.00000000       0.00000000      -0.25508272 </v>
    <i name="Tr[quadrupol]">  -7703.00401211 </i>
    <i name="Echarged">      0.00000000 </i>
    <i name="Edipol_quadrupol">      0.00000000 </i>
    <i name="Eion">      0.00000000 </i>
   </dipole>
   <energy>
    <i name="e_fr_energy">   -472.49490701 </i>
    <i name="e_wo_entrp">   -471.91270188 </i>
    <i name="e_0_energy">   -472.20380445 </i>
   </energy>
  </scstep>
  <scstep>
   <time name="dav">   29.11   29.14</time>
   <time name="total">   30.07   30.11</time>
   <dipole>
    <v name="dipole">      0.00000000       0.00000000      -0.25275078 </v>
    <i name="Tr[quadrupol]">  -7701.26528114 </i>
    <i name="Echarged">      0.00000000 </i>
    <i name="Edipol_quadrupol">      0.00000000 </i>
    <i name="Eion">      0.00000000 </i>
   </dipole>
   <energy>
    <i name="e_fr_energy">   -472.31195326 </i>
    <i name="e_wo_entrp">   -471.72530373 </i>
    <i name="e_0_energy">   -472.01862849 </i>
   </energy>
  </scstep>
  <scstep>
   <time name="dav">   32.89   32.94</time>
   <time name="total">   33.86   33.90</time>
   <dipole>
    <v name="dipole">      0.00000000       0.00000000      -0.25016099 </v>
    <i name="Tr[quadrupol]">  -7700.29512228 </i>
    <i name="Echarged">      0.00000000 </i>
    <i name="Edipol_quadrupol">      0.00000000 </i>
    <i name="Eion">      0.00000000 </i>
   </dipole>
   <energy>
    <i name="e_fr_energy">   -472.28504458 </i>
    <i name="e_wo_entrp">   -471.70352502 </i>
    <i name="e_0_energy">   -471.99428480 </i>
   </energy>
  </scstep>
  <scstep>
   <time name="dav">   30.37   30.41</time>
   <time name="total">   31.34   31.38</time>
   <dipole>
    <v name="dipole">      0.00000000       0.00000000      -0.23147464 </v>
    <i name="Tr[quadrupol]">  -7698.87803797 </i>
    <i name="Echarged">      0.00000000 </i>
    <i name="Edipol_quadrupol">      0.00000000 </i>
    <i name="Eion">      0.00000000 </i>
   </dipole>
   <energy>
    <i name="e_fr_energy">   -472.20522846 </i>
    <i name="e_wo_entrp">   -471.61389025 </i>
    <i name="e_0_energy">   -471.90955935 </i>
   </energy>
  </scstep>
  <scstep>
   <time name="dav">   31.79   31.83</time>
   <time name="total">   32.75   32.79</time>
   <dipole>
    <v name="dipole">      0.00000000       0.00000000      -0.22415194 </v>
    <i name="Tr[quadrupol]">  -7697.22861025 </i>
    <i name="Echarged">      0.00000000 </i>
    <i name="Edipol_quadrupol">      0.00000000 </i>
    <i name="Eion">      0.00000000 </i>
   </dipole>
   <energy>
    <i name="e_fr_energy">   -472.11188797 </i>
    <i name="e_wo_entrp">   -471.51565960 </i>
    <i name="e_0_energy">   -471.81377378 </i>
   </energy>
  </scstep>
  <scstep>
   <time name="dav">   32.08   32.11</time>
   <time name="total">   33.04   33.09</time>
   <dipole>
    <v name="dipole">      0.00000000       0.00000000      -0.21240668 </v>
    <i name="Tr[quadrupol]">  -7695.50076292 </i>
    <i name="Echarged">      0.00000000 </i>
    <i name="Edipol_quadrupol">      0.00000000 </i>
    <i name="Eion">      0.00000000 </i>
   </dipole>
   <energy>
    <i name="e_fr_energy">   -472.02417395 </i>
    <i name="e_wo_entrp">   -471.42364163 </i>
    <i name="e_0_energy">   -471.72390779 </i>
   </energy>
  </scstep>
  <scstep>
   <time name="dav">   32.84   32.88</time>
   <time name="total">   33.81   33.85</time>
   <dipole>
    <v name="dipole">      0.00000000       0.00000000      -0.20366903 </v>
    <i name="Tr[quadrupol]">  -7692.77444330 </i>
    <i name="Echarged">      0.00000000 </i>
    <i name="Edipol_quadrupol">      0.00000000 </i>
    <i name="Eion">      0.00000000 </i>
   </dipole>
   <energy>
    <i name="e_fr_energy">   -471.96004963 </i>
    <i name="e_wo_entrp">   -471.35689125 </i>
    <i name="e_0_energy">   -471.65847044 </i>
   </energy>
  </scstep>
  <scstep>
   <time name="dav">   28.33   28.36</time>
   <time name="total">   29.30   29.33</time>
   <dipole>
    <v name="dipole">      0.00000000       0.00000000      -0.19729686 </v>
    <i name="Tr[quadrupol]">  -7692.31879447 </i>
    <i name="Echarged">      0.00000000 </i>
    <i name="Edipol_quadrupol">      0.00000000 </i>
    <i name="Eion">      0.00000000 </i>
   </dipole>
   <energy>
    <i name="e_fr_energy">   -471.94042675 </i>
    <i name="e_wo_entrp">   -471.33963730 </i>
    <i name="e_0_energy">   -471.64003202 </i>
   </energy>
  </scstep>
  <scstep>
   <time name="dav">   36.26   36.30</time>
   <time name="total">   37.23   37.27</time>
   <dipole>
    <v name="dipole">      0.00000000       0.00000000      -0.18790477 </v>
    <i name="Tr[quadrupol]">  -7690.71991093 </i>
    <i name="Echarged">      0.00000000 </i>
    <i name="Edipol_quadrupol">      0.00000000 </i>
    <i name="Eion">      0.00000000 </i>
   </dipole>
   <energy>
    <i name="e_fr_energy">   -471.88743107 </i>
    <i name="e_wo_entrp">   -471.28546005 </i>
    <i name="e_0_energy">   -471.58644556 </i>
   </energy>
  </scstep>
  <scstep>
   <time name="dav">   34.71   34.75</time>
   <time name="total">   35.69   35.73</time>
   <dipole>
    <v name="dipole">      0.00000000       0.00000000      -0.22417350 </v>
    <i name="Tr[quadrupol]">  -7688.18116564 </i>
    <i name="Echarged">      0.00000000 </i>
    <i name="Edipol_quadrupol">      0.00000000 </i>
    <i name="Eion">      0.00000000 </i>
   </dipole>
   <energy>
    <i name="e_fr_energy">   -471.88065750 </i>
    <i name="e_wo_entrp">   -471.27538953 </i>
    <i name="e_0_energy">   -471.57802351 </i>
   </energy>
  </scstep>
  <scstep>
   <time name="dav">   27.41   27.45</time>
   <time name="total">   28.38   28.42</time>
   <dipole>
    <v name="dipole">      0.00000000       0.00000000      -0.22716716 </v>
    <i name="Tr[quadrupol]">  -7688.23659067 </i>
    <i name="Echarged">      0.00000000 </i>
    <i name="Edipol_quadrupol">      0.00000000 </i>
    <i name="Eion">      0.00000000 </i>
   </dipole>
   <energy>
    <i name="e_fr_energy">   -471.88172597 </i>
    <i name="e_wo_entrp">   -471.27683924 </i>
    <i name="e_0_energy">   -471.57928261 </i>
   </energy>
  </scstep>
  <scstep>
   <time name="dav">   30.92   30.95</time>
   <time name="total">   31.89   31.92</time>
   <dipole>
    <v name="dipole">      0.00000000       0.00000000      -0.22320027 </v>
    <i name="Tr[quadrupol]">  -7688.12175034 </i>
    <i name="Echarged">      0.00000000 </i>
    <i name="Edipol_quadrupol">      0.00000000 </i>
    <i name="Eion">      0.00000000 </i>
   </dipole>
   <energy>
    <i name="e_fr_energy">   -471.86686623 </i>
    <i name="e_wo_entrp">   -471.25966357 </i>
    <i name="e_0_energy">   -471.56326490 </i>
   </energy>
  </scstep>
  <scstep>
   <time name="dav">   32.02   32.04</time>
   <time name="total">   32.98   33.01</time>
   <dipole>
    <v name="dipole">      0.00000000       0.00000000      -0.21135869 </v>
    <i name="Tr[quadrupol]">  -7687.60584433 </i>
    <i name="Echarged">      0.00000000 </i>
    <i name="Edipol_quadrupol">      0.00000000 </i>
    <i name="Eion">      0.00000000 </i>
   </dipole>
   <energy>
    <i name="e_fr_energy">   -471.85084892 </i>
    <i name="e_wo_entrp">   -471.24062757 </i>
    <i name="e_0_energy">   -471.54573825 </i>
   </energy>
  </scstep>
  <scstep>
   <time name="dav">   30.07   30.10</time>
   <time name="total">   31.04   31.07</time>
   <dipole>
    <v name="dipole">      0.00000000       0.00000000      -0.19608118 </v>
    <i name="Tr[quadrupol]">  -7686.97331213 </i>
    <i name="Echarged">      0.00000000 </i>
    <i name="Edipol_quadrupol">      0.00000000 </i>
    <i name="Eion">      0.00000000 </i>
   </dipole>
   <energy>
    <i name="e_fr_energy">   -471.85020504 </i>
    <i name="e_wo_entrp">   -471.24068396 </i>
    <i name="e_0_energy">   -471.54544450 </i>
   </energy>
  </scstep>
  <scstep>
   <time name="dav">   28.55   28.57</time>
   <time name="total">   29.51   29.54</time>
   <dipole>
    <v name="dipole">      0.00000000       0.00000000      -0.19415946 </v>
    <i name="Tr[quadrupol]">  -7686.64716910 </i>
    <i name="Echarged">      0.00000000 </i>
    <i name="Edipol_quadrupol">      0.00000000 </i>
    <i name="Eion">      0.00000000 </i>
   </dipole>
   <energy>
    <i name="e_fr_energy">   -471.85149383 </i>
    <i name="e_wo_entrp">   -471.24286734 </i>
    <i name="e_0_energy">   -471.54718059 </i>
   </energy>
  </scstep>
  <scstep>
   <time name="dav">   27.89   27.92</time>
   <time name="total">   28.86   28.89</time>
   <dipole>
    <v name="dipole">      0.00000000       0.00000000      -0.18199880 </v>
    <i name="Tr[quadrupol]">  -7686.14310181 </i>
    <i name="Echarged">      0.00000000 </i>
    <i name="Edipol_quadrupol">      0.00000000 </i>
    <i name="Eion">      0.00000000 </i>
   </dipole>
   <energy>
    <i name="e_fr_energy">   -471.85159133 </i>
    <i name="e_wo_entrp">   -471.24480438 </i>
    <i name="e_0_energy">   -471.54819785 </i>
   </energy>
  </scstep>
  <scstep>
   <time name="dav">   29.37   29.40</time>
   <time name="total">   30.33   30.36</time>
   <dipole>
    <v name="dipole">      0.00000000       0.00000000      -0.16975693 </v>
    <i name="Tr[quadrupol]">  -7685.52731121 </i>
    <i name="Echarged">      0.00000000 </i>
    <i name="Edipol_quadrupol">      0.00000000 </i>
    <i name="Eion">      0.00000000 </i>
   </dipole>
   <energy>
    <i name="e_fr_energy">   -471.85149146 </i>
    <i name="e_wo_entrp">   -471.24618712 </i>
    <i name="e_0_energy">   -471.54883929 </i>
   </energy>
  </scstep>
  <scstep>
   <time name="dav">   27.32   27.35</time>
   <time name="total">   28.29   28.32</time>
   <dipole>
    <v name="dipole">      0.00000000       0.00000000      -0.16008365 </v>
    <i name="Tr[quadrupol]">  -7684.96758693 </i>
    <i name="Echarged">      0.00000000 </i>
    <i name="Edipol_quadrupol">      0.00000000 </i>
    <i name="Eion">      0.00000000 </i>
   </dipole>
   <energy>
    <i name="e_fr_energy">   -471.85069682 </i>
    <i name="e_wo_entrp">   -471.24501033 </i>
    <i name="e_0_energy">   -471.54785358 </i>
   </energy>
  </scstep>
  <scstep>
   <time name="dav">   28.67   28.71</time>
   <time name="total">   29.65   29.68</time>
   <dipole>
    <v name="dipole">      0.00000000       0.00000000      -0.15279151 </v>
    <i name="Tr[quadrupol]">  -7684.62241171 </i>
    <i name="Echarged">      0.00000000 </i>
    <i name="Edipol_quadrupol">      0.00000000 </i>
    <i name="Eion">      0.00000000 </i>
   </dipole>
   <energy>
    <i name="e_fr_energy">   -471.84998323 </i>
    <i name="e_wo_entrp">   -471.24351272 </i>
    <i name="e_0_energy">   -471.54674798 </i>
   </energy>
  </scstep>
  <scstep>
   <time name="dav">   30.61   30.65</time>
   <time name="total">   30.76   30.80</time>
   <dipole>
    <v name="dipole">      0.00000000       0.00000000      -0.15338236 </v>
    <i name="Tr[quadrupol]">  -7684.58897413 </i>
    <i name="Echarged">      0.00000000 </i>
    <i name="Edipol_quadrupol">      0.00000000 </i>
    <i name="Eion">      0.00000000 </i>
   </dipole>
   <energy>
    <i name="alphaZ">    845.27302262 </i>
    <i name="ewald"> 164004.65450766 </i>
    <i name="hartreedc">-201094.11254235 </i>
    <i name="XCdc">    890.26543114 </i>
    <i name="pawpsdc">  44273.85265794 </i>
    <i name="pawaedc"> -43358.25093144 </i>
    <i name="eentropy">     -0.60810507 </i>
    <i name="bandstr">  -3226.87607487 </i>
    <i name="atom">  37193.95212048 </i>
    <i name="e_fr_energy">   -471.84991389 </i>
    <i name="e_wo_entrp">   -471.24180882 </i>
    <i name="e_0_energy">   -471.54586136 </i>
   </energy>
  </scstep>
  <structure>
   <crystal>
    <varray name="basis" >
     <v>       8.34588864       0.00000000       0.00000000 </v>
     <v>       0.00000000       9.63700211       0.00000000 </v>
[...]
       <r>   -12.6492     0.0632    50.0069 </r>
       <r>   -12.5404     2.1826    50.2442 </r>
       <r>   -12.4317     9.6786    51.2966 </r>
       <r>   -12.3229     7.9605    52.1623 </r>
       <r>   -12.2142     9.9646    53.2458 </r>
       <r>   -12.1055     8.3452    54.1532 </r>
       <r>   -11.9967     9.9971    55.2403 </r>
       <r>   -11.8880     6.3877    55.9349 </r>
       <r>   -11.7793     0.5923    55.9993 </r>
       <r>   -11.6705     0.0066    56.0000 </r>
       <r>   -11.5618     0.0000    56.0000 </r>
       <r>   -11.4530     0.0000    56.0000 </r>
       <r>   -11.3443     0.0000    56.0000 </r>
       <r>   -11.2356     0.0000    56.0000 </r>
       <r>   -11.1268     0.0000    56.0000 </r>
       <r>   -11.0181     0.0000    56.0000 </r>
       <r>   -10.9094     0.0000    56.0000 </r>
       <r>   -10.8006     0.0001    56.0000 </r>
       <r>   -10.6919     0.0384    56.0042 </r>
       <r>   -10.5831     1.4968    56.1670 </r>
       <r>   -10.4744     8.5919    57.1012 </r>
       <r>   -10.3657    11.6121    58.3639 </r>
       <r>   -10.2569    10.6244    59.5192 </r>
       <r>   -10.1482     4.5098    60.0096 </r>
       <r>   -10.0394     1.3864    60.1603 </r>
       <r>    -9.9307     4.3808    60.6367 </r>
       <r>    -9.8220    13.1010    62.0612 </r>
       <r>    -9.7132    11.1482    63.2735 </r>
       <r>    -9.6045    17.8115    65.2103 </r>
       <r>    -9.4958    17.3580    67.0978 </r>
       <r>    -9.3870     6.3290    67.7860 </r>
       <r>    -9.2783     9.9518    68.8681 </r>
       <r>    -9.1695    14.9856    70.4976 </r>
       <r>    -9.0608    16.9053    72.3358 </r>
       <r>    -8.9521    20.5739    74.5730 </r>
       <r>    -8.8433    15.0725    76.2120 </r>
       <r>    -8.7346    10.3527    77.3377 </r>
       <r>    -8.6259     5.6856    77.9559 </r>
       <r>    -8.5171    11.4787    79.2041 </r>
       <r>    -8.4084    16.9102    81.0429 </r>
       <r>    -8.2996    15.6437    82.7439 </r>
       <r>    -8.1909    10.7986    83.9182 </r>
       <r>    -8.0822    15.2568    85.5772 </r>
       <r>    -7.9734    20.1598    87.7693 </r>
       <r>    -7.8647    24.5615    90.4401 </r>
       <r>    -7.7560    33.3474    94.0662 </r>
       <r>    -7.6472    26.9054    96.9918 </r>
       <r>    -7.5385    17.6044    98.9061 </r>
       <r>    -7.4297    30.0918   102.1782 </r>
       <r>    -7.3210    34.4849   105.9280 </r>
       <r>    -7.2123    33.7147   109.5941 </r>
       <r>    -7.1035    35.2090   113.4226 </r>
       <r>    -6.9948    46.1520   118.4411 </r>
       <r>    -6.8860    58.1505   124.7643 </r>
       <r>    -6.7773    55.1351   130.7596 </r>
       <r>    -6.6686    57.9337   137.0592 </r>
       <r>    -6.5598    68.4976   144.5074 </r>
       <r>    -6.4511    71.8295   152.3180 </r>
       <r>    -6.3424    68.1590   159.7295 </r>
       <r>    -6.2336    51.7254   165.3540 </r>
       <r>    -6.1249    42.6544   169.9922 </r>
       <r>    -6.0161    39.6355   174.3020 </r>
       <r>    -5.9074    52.6651   180.0287 </r>
       <r>    -5.7987    57.2878   186.2581 </r>
       <r>    -5.6899    51.7307   191.8832 </r>
       <r>    -5.5812    48.4098   197.1472 </r>
       <r>    -5.4725    40.5515   201.5566 </r>
       <r>    -5.3637    39.1926   205.8184 </r>
       <r>    -5.2550    62.9718   212.6658 </r>
       <r>    -5.1462    97.1923   223.2343 </r>
       <r>    -5.0375    89.0377   232.9161 </r>
       <r>    -4.9288    62.5515   239.7178 </r>
       <r>    -4.8200    54.8537   245.6825 </r>
       <r>    -4.7113    63.7070   252.6098 </r>
       <r>    -4.6026    91.8616   262.5987 </r>
       <r>    -4.4938    93.6004   272.7766 </r>
       <r>    -4.3851    76.3284   281.0764 </r>
       <r>    -4.2763    83.2778   290.1318 </r>
       <r>    -4.1676    88.1153   299.7133 </r>
       <r>    -4.0589    84.2299   308.8723 </r>
       <r>    -3.9501    96.2280   319.3359 </r>
       <r>    -3.8414    95.0391   329.6703 </r>
       <r>    -3.7326    84.4451   338.8527 </r>
       <r>    -3.6239    90.9284   348.7400 </r>
       <r>    -3.5152    81.4152   357.5929 </r>
       <r>    -3.4064    72.3394   365.4590 </r>
       <r>    -3.2977    67.1545   372.7612 </r>
       <r>    -3.1890    56.8671   378.9448 </r>
       <r>    -3.0802    54.7694   384.9004 </r>
       <r>    -2.9715    61.4344   391.5806 </r>
       <r>    -2.8627    61.8913   398.3105 </r>
       <r>    -2.7540    73.8289   406.3385 </r>
       <r>    -2.6453    85.7376   415.6615 </r>
       <r>    -2.5365    89.8284   425.4292 </r>
       <r>    -2.4278    91.4299   435.3711 </r>
       <r>    -2.3191    85.6582   444.6854 </r>
       <r>    -2.2103    65.8034   451.8407 </r>
       <r>    -2.1016    54.1066   457.7242 </r>
       <r>    -1.9928    71.6670   465.5171 </r>
       <r>    -1.8841    68.1479   472.9274 </r>
       <r>    -1.7754    65.7585   480.0778 </r>
       <r>    -1.6666    79.0901   488.6779 </r>
       <r>    -1.5579    77.7924   497.1369 </r>
       <r>    -1.4492    80.5740   505.8983 </r>
       <r>    -1.3404    80.9337   514.6989 </r>
       <r>    -1.2317    87.1741   524.1780 </r>
       <r>    -1.1229   118.0609   537.0157 </r>
       <r>    -1.0142   130.3805   551.1930 </r>
       <r>    -0.9055   107.7790   562.9127 </r>
       <r>    -0.7967    66.5717   570.1516 </r>
       <r>    -0.6880    48.9610   575.4755 </r>
       <r>    -0.5792    36.1157   579.4026 </r>
       <r>    -0.4705    23.3404   581.9406 </r>
       <r>    -0.3618    21.4813   584.2764 </r>
       <r>    -0.2530    21.0968   586.5705 </r>
       <r>    -0.1443    25.9538   589.3926 </r>
       <r>    -0.0356    23.0690   591.9011 </r>
       <r>     0.0732    25.0308   594.6229 </r>
       <r>     0.1819    34.9770   598.4262 </r>
       <r>     0.2907    25.0525   601.1504 </r>
       <r>     0.3994     8.4858   602.0731 </r>
       <r>     0.5081    10.1730   603.1793 </r>
       <r>     0.6169    10.7646   604.3498 </r>
       <r>     0.7256    11.2372   605.5717 </r>
       <r>     0.8343    14.0204   607.0963 </r>
       <r>     0.9431    13.3226   608.5450 </r>
       <r>     1.0518    18.3344   610.5386 </r>
       <r>     1.1606    22.6893   613.0058 </r>
       <r>     1.2693    19.4887   615.1249 </r>
       <r>     1.3780     8.8804   616.0906 </r>
       <r>     1.4868     3.7141   616.4944 </r>
       <r>     1.5955     8.4417   617.4124 </r>
       <r>     1.7042    14.2738   618.9645 </r>
       <r>     1.8130    14.6189   620.5541 </r>
       <r>     1.9217    21.3273   622.8732 </r>
       <r>     2.0305    23.7448   625.4552 </r>
       <r>     2.1392    14.3895   627.0198 </r>
       <r>     2.2479    12.4118   628.3695 </r>
       <r>     2.3567    14.1492   629.9080 </r>
       <r>     2.4654    19.0556   631.9801 </r>
       <r>     2.5742    16.8736   633.8149 </r>
       <r>     2.6829    12.1073   635.1314 </r>
       <r>     2.7916    17.8479   637.0722 </r>
       <r>     2.9004    16.3727   638.8525 </r>
       <r>     3.0091    19.6695   640.9913 </r>
       <r>     3.1178    29.5821   644.2080 </r>
       <r>     3.2266    19.8569   646.3672 </r>
       <r>     3.3353    11.4287   647.6099 </r>
       <r>     3.4441     8.9785   648.5863 </r>
       <r>     3.5528    18.5035   650.5983 </r>
       <r>     3.6615    28.3476   653.6807 </r>
       <r>     3.7703    23.2171   656.2053 </r>
       <r>     3.8790    20.8862   658.4764 </r>
       <r>     3.9877    15.2602   660.1358 </r>
       <r>     4.0965    10.7540   661.3052 </r>
       <r>     4.2052     4.7674   661.8236 </r>
       <r>     4.3140     1.3578   661.9712 </r>
       <r>     4.4227     0.2556   661.9990 </r>
       <r>     4.5314     0.0091   662.0000 </r>
       <r>     4.6402     0.0000   662.0000 </r>
       <r>     4.7489     0.0000   662.0000 </r>
       <r>     4.8576     0.0000   662.0000 </r>
       <r>     4.9664     0.0000   662.0000 </r>
       <r>     5.0751     0.0000   662.0000 </r>
       <r>     5.1839     0.0000   662.0000 </r>
       <r>     5.2926     0.0000   662.0000 </r>
       <r>     5.4013     0.0000   662.0000 </r>
       <r>     5.5101     0.0000   662.0000 </r>
       <r>     5.6188     0.0000   662.0000 </r>
       <r>     5.7276     0.0000   662.0000 </r>
      </set>
     </set>
    </array>
   </total>
  </dos>
 </calculation>
 <structure name="finalpos" >
  <crystal>
   <varray name="basis" >
    <v>       8.34588864       0.00000000       0.00000000 </v>
    <v>       0.00000000       9.63700211       0.00000000 </v>
    <v>       0.00000000       0.00000000      32.54292636 </v>
   </varray>
   <i name="volume">   2617.40629817 </i>
   <varray name="rec_basis" >
    <v>       0.11981948       0.00000000       0.00000000 </v>
    <v>       0.00000000       0.10376671       0.00000000 </v>
    <v>       0.00000000       0.00000000       0.03072864 </v>
   </varray>
  </crystal>
  <varray name="positions" >
   <v>       0.88819913       0.25519689       0.49554789 </v>
   <v>       0.13893692       0.32478006       0.49276188 </v>
   <v>       0.48008136       0.49361145       0.50160803 </v>
   <v>       0.72398628       0.03530633       0.50337270 </v>
   <v>       0.16435832       0.06952922       0.49330892 </v>
   <v>       0.27396297       0.00497456       0.45258100 </v>
   <v>       0.77506020       0.22390831       0.54807091 </v>
   <v>       0.71356446       0.30935126       0.50932166 </v>
   <v>       0.00826878       0.18614954       0.64299855 </v>
   <v>       0.97581070       0.17440149       0.50271615 </v>
   <v>       0.45813395       0.47476897       0.60996893 </v>
   <v>       0.56422917       0.47471351       0.57012460 </v>
   <v>       0.17495878       0.39848533       0.62352628 </v>
   <v>       0.13527348       0.05999926       0.62052729 </v>
   <v>       0.68461730       0.13843514       0.60812568 </v>
   <v>       0.68315189       0.30253153       0.60827643 </v>
   <v>       0.14232198       0.13879974       0.72243163 </v>
   <v>       0.08643328       0.18999023       0.78089344 </v>
   <v>       0.49889247       0.46605956       0.72625816 </v>
   <v>       0.84644013       0.98560164       0.74879916 </v>
   <v>       0.21356153       0.39580279       0.72141319 </v>
   <v>       0.27042086       0.88241815       0.68306175 </v>
   <v>       0.76029185       0.21592771       0.78083577 </v>
   <v>       0.71229798       0.30308456       0.74240864 </v>
   <v>       0.88886613       0.76204308       0.49546342 </v>
   <v>       0.13839195       0.83207279       0.49286177 </v>
   <v>       0.46058085       0.08813360       0.49181850 </v>
   <v>       0.64673520       0.56701486       0.50903279 </v>
   <v>       0.20756211       0.59008676       0.48845286 </v>
   <v>       0.27175725       0.50651762       0.45162263 </v>
   <v>       0.77540454       0.73105150       0.54805236 </v>
   <v>       0.71353934       0.81948542       0.50904672 </v>
   <v>       0.00547551       0.68914140       0.64117947 </v>
   <v>       0.97527615       0.68123584       0.50269113 </v>
   <v>       0.45644945       0.07459665       0.61012139 </v>
   <v>       0.56337557       0.07497412       0.56960043 </v>
   <v>       0.18004588       0.89030348       0.62389276 </v>
   <v>       0.17584498       0.56281860       0.62331588 </v>
   <v>       0.68399009       0.64420677       0.60786039 </v>
   <v>       0.68248813       0.80964201       0.60826435 </v>
   <v>       0.14347312       0.64498656       0.72250771 </v>
   <v>       0.08711711       0.69686556       0.78089017 </v>
   <v>       0.51536635       0.05601434       0.72868662 </v>
   <v>       0.66057367       0.54741147       0.73423476 </v>
   <v>       0.16191548       0.01323682       0.72742535 </v>
   <v>       0.27095283       0.48152163       0.68397254 </v>
   <v>       0.76027712       0.72291126       0.78085364 </v>
   <v>       0.71190309       0.80921084       0.74243049 </v>
   <v>       0.09468779       0.23329609       0.48770028 </v>
   <v>       0.58923355       0.47973289       0.51314732 </v>
   <v>       0.26929141       0.50511750       0.48175541 </v>
   <v>       0.76806585       0.22603208       0.51808252 </v>
   <v>       0.14340761       0.25607308       0.75420478 </v>
   <v>       0.57063887       0.47369536       0.60040692 </v>
   <v>       0.24337804       0.48082851       0.62762375 </v>
   <v>       0.75735696       0.22496081       0.60303055 </v>
   <v>       0.13431433       0.29750847       0.68591857 </v>
   <v>       0.61507701       0.45478486       0.73068634 </v>
   <v>       0.33028884       0.86574698       0.70914706 </v>
   <v>       0.76968095       0.21705757       0.75121925 </v>
   <v>       0.09764549       0.73682700       0.48768350 </v>
   <v>       0.52973886       0.10803687       0.52877670 </v>
   <v>       0.31407253       0.11119197       0.47521594 </v>
   <v>       0.76721623       0.72671733       0.51811397 </v>
   <v>       0.14453352       0.76214952       0.75431124 </v>
   <v>       0.56643076       0.06705689       0.60047980 </v>
   <v>       0.27997786       0.09002353       0.63010144 </v>
   <v>       0.75105172       0.72735037       0.60301989 </v>
   <v>       0.13400398       0.80787695       0.68758282 </v>
   <v>       0.41320618       0.11851599       0.71343903 </v>
   <v>       0.27337655       0.48277814       0.71442627 </v>
   <v>       0.76796344       0.72379009       0.75098538 </v>
   <v>       0.16666667       0.08333333       0.21910656 </v>
   <v>       0.50000000       0.08333333       0.21910656 </v>
   <v>       0.83333333       0.08333333       0.21910656 </v>
   <v>       0.00000000       0.33333333       0.21910656 </v>
   <v>       0.33333333       0.33333333       0.21910656 </v>
   <v>       0.66666667       0.33333333       0.21910656 </v>
   <v>       0.16666667       0.58333333       0.21910656 </v>
   <v>       0.50000000       0.58333333       0.21910656 </v>
   <v>       0.83333333       0.58333333       0.21910656 </v>
   <v>       0.00000000       0.83333333       0.21910656 </v>
   <v>       0.33333333       0.83333333       0.21910656 </v>
   <v>       0.66666667       0.83333333       0.21910656 </v>
   <v>       0.00000000       0.16666667       0.28890555 </v>
   <v>       0.33333333       0.16666667       0.28890555 </v>
   <v>       0.66666667       0.16666667       0.28890555 </v>
   <v>       0.16666667       0.41666667       0.28890555 </v>
   <v>       0.50000000       0.41666667       0.28890555 </v>
   <v>       0.83333333       0.41666667       0.28890555 </v>
   <v>       0.00000000       0.66666667       0.28890555 </v>
   <v>       0.33333333       0.66666667       0.28890555 </v>
   <v>       0.66666667       0.66666667       0.28890555 </v>
   <v>       0.16666667       0.91666667       0.28890555 </v>
   <v>       0.50000000       0.91666667       0.28890555 </v>
   <v>       0.83333333       0.91666667       0.28890555 </v>
   <v>       0.00000000       0.00000000       0.35870453 </v>
   <v>       0.33333333       0.00000000       0.35870453 </v>
   <v>       0.66666667       0.00000000       0.35870453 </v>
   <v>       0.16666667       0.25000000       0.35870453 </v>
   <v>       0.50000000       0.25000000       0.35870453 </v>
   <v>       0.83333333       0.25000000       0.35870453 </v>
   <v>       0.00000000       0.50000000       0.35870453 </v>
   <v>       0.33333333       0.50000000       0.35870453 </v>
   <v>       0.66666667       0.50000000       0.35870453 </v>
   <v>       0.16666667       0.75000000       0.35870453 </v>
   <v>       0.50000000       0.75000000       0.35870453 </v>
   <v>       0.83333333       0.75000000       0.35870453 </v>
  </varray>
  <varray name="selective"  type="logical" >
   <v type="logical" >  T  T  T </v>
   <v type="logical" >  T  T  T </v>
   <v type="logical" >  T  T  T </v>
   <v type="logical" >  T  T  T </v>
   <v type="logical" >  T  T  T </v>
   <v type="logical" >  T  T  T </v>
   <v type="logical" >  T  T  T </v>
   <v type="logical" >  T  T  T </v>
   <v type="logical" >  T  T  T </v>
   <v type="logical" >  T  T  T </v>
   <v type="logical" >  T  T  T </v>
   <v type="logical" >  T  T  T </v>
   <v type="logical" >  T  T  T </v>
   <v type="logical" >  T  T  T </v>
   <v type="logical" >  T  T  T </v>
   <v type="logical" >  T  T  T </v>
   <v type="logical" >  T  T  T </v>
   <v type="logical" >  T  T  T </v>
   <v type="logical" >  T  T  T </v>
   <v type="logical" >  T  T  T </v>
   <v type="logical" >  T  T  T </v>
   <v type="logical" >  T  T  T </v>
   <v type="logical" >  T  T  T </v>
   <v type="logical" >  T  T  T </v>
   <v type="logical" >  T  T  T </v>
   <v type="logical" >  T  T  T </v>
   <v type="logical" >  T  T  T </v>
   <v type="logical" >  T  T  T </v>
   <v type="logical" >  T  T  T </v>
   <v type="logical" >  T  T  T </v>
   <v type="logical" >  T  T  T </v>
   <v type="logical" >  T  T  T </v>
   <v type="logical" >  T  T  T </v>
   <v type="logical" >  T  T  T </v>
   <v type="logical" >  T  T  T </v>
   <v type="logical" >  T  T  T </v>
   <v type="logical" >  T  T  T </v>
   <v type="logical" >  T  T  T </v>
   <v type="logical" >  T  T  T </v>
   <v type="logical" >  T  T  T </v>
   <v type="logical" >  T  T  T </v>
   <v type="logical" >  T  T  T </v>
   <v type="logical" >  T  T  T </v>
   <v type="logical" >  T  T  T </v>
   <v type="logical" >  T  T  T </v>
   <v type="logical" >  T  T  T </v>
   <v type="logical" >  T  T  T </v>
   <v type="logical" >  T  T  T </v>
   <v type="logical" >  T  T  T </v>
   <v type="logical" >  T  T  T </v>
   <v type="logical" >  T  T  T </v>
   <v type="logical" >  T  T  T </v>
   <v type="logical" >  T  T  T </v>
   <v type="logical" >  T  T  T </v>
   <v type="logical" >  T  T  T </v>
   <v type="logical" >  T  T  T </v>
   <v type="logical" >  T  T  T </v>
   <v type="logical" >  T  T  T </v>
   <v type="logical" >  T  T  T </v>
   <v type="logical" >  T  T  T </v>
   <v type="logical" >  T  T  T </v>
   <v type="logical" >  T  T  T </v>
   <v type="logical" >  T  T  T </v>
   <v type="logical" >  T  T  T </v>
   <v type="logical" >  T  T  T </v>
   <v type="logical" >  T  T  T </v>
   <v type="logical" >  T  T  T </v>
   <v type="logical" >  T  T  T </v>
   <v type="logical" >  T  T  T </v>
   <v type="logical" >  T  T  T </v>
   <v type="logical" >  T  T  T </v>
   <v type="logical" >  T  T  T </v>
   <v type="logical" >  F  F  F </v>
   <v type="logical" >  F  F  F </v>
   <v type="logical" >  F  F  F </v>
   <v type="logical" >  F  F  F </v>
   <v type="logical" >  F  F  F </v>
   <v type="logical" >  F  F  F </v>
   <v type="logical" >  F  F  F </v>
   <v type="logical" >  F  F  F </v>
   <v type="logical" >  F  F  F </v>
   <v type="logical" >  F  F  F </v>
   <v type="logical" >  F  F  F </v>
   <v type="logical" >  F  F  F </v>
   <v type="logical" >  F  F  F </v>
   <v type="logical" >  F  F  F </v>
   <v type="logical" >  F  F  F </v>
   <v type="logical" >  F  F  F </v>
   <v type="logical" >  F  F  F </v>
   <v type="logical" >  F  F  F </v>
   <v type="logical" >  F  F  F </v>
   <v type="logical" >  F  F  F </v>
   <v type="logical" >  F  F  F </v>
   <v type="logical" >  F  F  F </v>
   <v type="logical" >  F  F  F </v>
   <v type="logical" >  F  F  F </v>
   <v type="logical" >  T  T  T </v>
   <v type="logical" >  T  T  T </v>
   <v type="logical" >  T  T  T </v>
   <v type="logical" >  T  T  T </v>
   <v type="logical" >  T  T  T </v>
   <v type="logical" >  T  T  T </v>
   <v type="logical" >  T  T  T </v>
   <v type="logical" >  T  T  T </v>
   <v type="logical" >  T  T  T </v>
   <v type="logical" >  T  T  T </v>
   <v type="logical" >  T  T  T </v>
   <v type="logical" >  T  T  T </v>
  </varray>
  <nose>
   <v>      -3.00000000       0.00000000       0.00010000       0.00010000 </v>
  </nose>
 </structure>
</modeling>
