CuH2O                                   
           1
     8.345889    0.000000    0.000000
     0.000000    9.637002    0.000000
     0.000000    0.000000   32.542926
   H    O    Pt
  48  24  36
Direct configuration=     1
   0.88819913  0.25519689  0.49554789
   0.13893692  0.32478006  0.49276188
   0.48008136  0.49361145  0.50160803
   0.72398628  0.03530633  0.50337270
   0.16435832  0.06952922  0.49330892
   0.27396297  0.00497456  0.45258100
   0.77506020  0.22390831  0.54807091
   0.71356446  0.30935126  0.50932166
   0.00826878  0.18614954  0.64299855
   0.97581070  0.17440149  0.50271615
   0.45813395  0.47476897  0.60996893
   0.56422917  0.47471351  0.57012460
   0.17495878  0.39848533  0.62352628
   0.13527348  0.05999926  0.62052729
   0.68461730  0.13843514  0.60812568
   0.68315189  0.30253153  0.60827643
   0.14232198  0.13879974  0.72243163
   0.08643328  0.18999023  0.78089344
   0.49889247  0.46605956  0.72625816
   0.84644013  0.98560164  0.74879916
   0.21356153  0.39580279  0.72141319
   0.27042086  0.88241815  0.68306175
   0.76029185  0.21592771  0.78083577
   0.71229798  0.30308456  0.74240864
   0.88886613  0.76204308  0.49546342
   0.13839195  0.83207279  0.49286177
   0.46058085  0.08813360  0.49181850
   0.64673520  0.56701486  0.50903279
   0.20756211  0.59008676  0.48845286
   0.27175725  0.50651762  0.45162263
   0.77540454  0.73105150  0.54805236
   0.71353934  0.81948542  0.50904672
   0.00547551  0.68914140  0.64117947
   0.97527615  0.68123584  0.50269113
   0.45644945  0.07459665  0.61012139
   0.56337557  0.07497412  0.56960043
   0.18004588  0.89030348  0.62389276
   0.17584498  0.56281860  0.62331588
   0.68399009  0.64420677  0.60786039
   0.68248813  0.80964201  0.60826435
   0.14347312  0.64498656  0.72250771
   0.08711711  0.69686556  0.78089017
   0.51536635  0.05601434  0.72868662
   0.66057367  0.54741147  0.73423476
   0.16191548  0.01323682  0.72742535
   0.27095283  0.48152163  0.68397254
   0.76027712  0.72291126  0.78085364
   0.71190309  0.80921084  0.74243049
   0.09468779  0.23329609  0.48770028
   0.58923355  0.47973289  0.51314732
   0.26929141  0.50511750  0.48175541
   0.76806585  0.22603208  0.51808252
   0.14340761  0.25607308  0.75420478
   0.57063887  0.47369536  0.60040692
   0.24337804  0.48082851  0.62762375
   0.75735696  0.22496081  0.60303055
   0.13431433  0.29750847  0.68591857
   0.61507701  0.45478486  0.73068634
   0.33028884  0.86574698  0.70914706
   0.76968095  0.21705757  0.75121925
   0.09764549  0.73682700  0.48768350
   0.52973886  0.10803687  0.52877670
   0.31407253  0.11119197  0.47521594
   0.76721623  0.72671733  0.51811397
   0.14453352  0.76214952  0.75431124
   0.56643076  0.06705689  0.60047980
   0.27997786  0.09002353  0.63010144
   0.75105172  0.72735037  0.60301989
   0.13400398  0.80787695  0.68758282
   0.41320618  0.11851599  0.71343903
   0.27337655  0.48277814  0.71442627
   0.76796344  0.72379009  0.75098538
   0.16666667  0.08333333  0.21910656
   0.50000000  0.08333333  0.21910656
   0.83333333  0.08333333  0.21910656
   0.00000000  0.33333333  0.21910656
   0.33333333  0.33333333  0.21910656
   0.66666667  0.33333333  0.21910656
   0.16666667  0.58333333  0.21910656
   0.50000000  0.58333333  0.21910656
   0.83333333  0.58333333  0.21910656
   0.00000000  0.83333333  0.21910656
   0.33333333  0.83333333  0.21910656
   0.66666667  0.83333333  0.21910656
   0.00000000  0.16666667  0.28890555
   0.33333333  0.16666667  0.28890555
   0.66666667  0.16666667  0.28890555
   0.16666667  0.41666667  0.28890555
   0.50000000  0.41666667  0.28890555
   0.83333333  0.41666667  0.28890555
   0.00000000  0.66666667  0.28890555
   0.33333333  0.66666667  0.28890555
   0.66666667  0.66666667  0.28890555
   0.16666667  0.91666667  0.28890555
   0.50000000  0.91666667  0.28890555
   0.83333333  0.91666667  0.28890555
   0.00000000  0.00000000  0.35870453
   0.33333333  0.00000000  0.35870453
   0.66666667  0.00000000  0.35870453
   0.16666667  0.25000000  0.35870453
   0.50000000  0.25000000  0.35870453
   0.83333333  0.25000000  0.35870453
   0.00000000  0.50000000  0.35870453
   0.33333333  0.50000000  0.35870453
   0.66666667  0.50000000  0.35870453
   0.16666667  0.75000000  0.35870453
   0.50000000  0.75000000  0.35870453
   0.83333333  0.75000000  0.35870453
