 108 108   0   0
  0.2423524E+02  0.8345889E-09  0.9637002E-09  0.3254293E-08  0.1000000E-14
   300.000000000000     
  CAR 
 PtH2O                                   
      6.64095681    -23.53434749  301     -0.54326124      1.00000000
    -23.534  0.0000E+00  0.0000E+00
    -23.434  0.0000E+00  0.0000E+00
    -23.333  0.0000E+00  0.0000E+00
    -23.233  0.0000E+00  0.0000E+00
    -23.132  0.0000E+00  0.0000E+00
    -23.031  0.0000E+00  0.0000E+00
    -22.931  0.0000E+00  0.0000E+00
    -22.830  0.0000E+00  0.0000E+00
    -22.730  0.3747E-14  0.3793E-15
    -22.629  0.1897E-09  0.1926E-10
    -22.529  0.1278E-05  0.1299E-06
    -22.428  0.1188E-02  0.1210E-03
    -22.327  0.1572E+00  0.1612E-01
    -22.227  0.3206E+01  0.3424E+00
    -22.126  0.1232E+02  0.1595E+01
    -22.026  0.1604E+02  0.3218E+01
    -21.925  0.1810E+02  0.5042E+01
    -21.824  0.2018E+02  0.7076E+01
    -21.724  0.2719E+02  0.9820E+01
    -21.623  0.3212E+02  0.1307E+02
    -21.523  0.3121E+02  0.1624E+02
    -21.422  0.3606E+02  0.1989E+02
    -21.321  0.3721E+02  0.2367E+02
    -21.221  0.2877E+02  0.2661E+02
    -21.120  0.3036E+02  0.2970E+02
    -21.020  0.3375E+02  0.3313E+02
    -20.919  0.3689E+02  0.3688E+02
    -20.819  0.2888E+02  0.3983E+02
    -20.718  0.1894E+02  0.4177E+02
    -20.617  0.1730E+02  0.4354E+02
    -20.517  0.1235E+02  0.4481E+02
    -20.416  0.1117E+02  0.4596E+02
    -20.316  0.1022E+02  0.4702E+02
    -20.215  0.4883E+01  0.4753E+02
    -20.114  0.3540E+01  0.4789E+02
    -20.014  0.9968E+00  0.4800E+02
    -19.913  0.4564E-01  0.4800E+02
    -19.813  0.2930E-03  0.4800E+02
    -19.712  0.2454E-06  0.4800E+02
    -19.612  0.2578E-10  0.4800E+02
    -19.511  0.0000E+00  0.4800E+02
    -19.410  0.0000E+00  0.4800E+02
    -19.310  0.0000E+00  0.4800E+02
    -19.209  0.0000E+00  0.4800E+02
    -19.109  0.0000E+00  0.4800E+02
    -19.008  0.0000E+00  0.4800E+02
    -18.907  0.0000E+00  0.4800E+02
    -18.807  0.0000E+00  0.4800E+02
    -18.706  0.0000E+00  0.4800E+02
    -18.606  0.0000E+00  0.4800E+02
    -18.505  0.0000E+00  0.4800E+02
    -18.405  0.0000E+00  0.4800E+02
    -18.304  0.0000E+00  0.4800E+02
    -18.203  0.0000E+00  0.4800E+02
    -18.103  0.0000E+00  0.4800E+02
    -18.002  0.0000E+00  0.4800E+02
    -17.902  0.0000E+00  0.4800E+02
    -17.801  0.0000E+00  0.4800E+02
    -17.700  0.0000E+00  0.4800E+02
    -17.600  0.0000E+00  0.4800E+02
    -17.499  0.0000E+00  0.4800E+02
    -17.399  0.0000E+00  0.4800E+02
    -17.298  0.0000E+00  0.4800E+02
    -17.198  0.0000E+00  0.4800E+02
    -17.097  0.0000E+00  0.4800E+02
    -16.996  0.0000E+00  0.4800E+02
    -16.896  0.0000E+00  0.4800E+02
    -16.795  0.0000E+00  0.4800E+02
    -16.695  0.0000E+00  0.4800E+02
    -16.594  0.0000E+00  0.4800E+02
    -16.493  0.0000E+00  0.4800E+02
    -16.393  0.0000E+00  0.4800E+02
    -16.292  0.0000E+00  0.4800E+02
    -16.192  0.0000E+00  0.4800E+02
    -16.091  0.0000E+00  0.4800E+02
    -15.991  0.0000E+00  0.4800E+02
    -15.890  0.0000E+00  0.4800E+02
    -15.789  0.0000E+00  0.4800E+02
    -15.689  0.0000E+00  0.4800E+02
    -15.588  0.0000E+00  0.4800E+02
    -15.488  0.0000E+00  0.4800E+02
    -15.387  0.0000E+00  0.4800E+02
    -15.286  0.0000E+00  0.4800E+02
    -15.186  0.0000E+00  0.4800E+02
    -15.085  0.0000E+00  0.4800E+02
    -14.985  0.0000E+00  0.4800E+02
    -14.884  0.0000E+00  0.4800E+02
    -14.784  0.0000E+00  0.4800E+02
    -14.683  0.0000E+00  0.4800E+02
    -14.582  0.0000E+00  0.4800E+02
    -14.482  0.0000E+00  0.4800E+02
    -14.381  0.0000E+00  0.4800E+02
    -14.281  0.0000E+00  0.4800E+02
    -14.180  0.0000E+00  0.4800E+02
    -14.079  0.0000E+00  0.4800E+02
    -13.979  0.0000E+00  0.4800E+02
    -13.878  0.0000E+00  0.4800E+02
    -13.778  0.0000E+00  0.4800E+02
    -13.677  0.0000E+00  0.4800E+02
    -13.576  0.0000E+00  0.4800E+02
    -13.476  0.0000E+00  0.4800E+02
    -13.375  0.0000E+00  0.4800E+02
    -13.275  0.0000E+00  0.4800E+02
    -13.174  0.0000E+00  0.4800E+02
    -13.074  0.0000E+00  0.4800E+02
    -12.973  0.0000E+00  0.4800E+02
    -12.872  0.0000E+00  0.4800E+02
    -12.772  0.0000E+00  0.4800E+02
    -12.671  0.0000E+00  0.4800E+02
    -12.571  0.0000E+00  0.4800E+02
    -12.470  0.0000E+00  0.4800E+02
    -12.369  0.0000E+00  0.4800E+02
    -12.269  0.0000E+00  0.4800E+02
    -12.168  0.0000E+00  0.4800E+02
    -12.068  0.0000E+00  0.4800E+02
    -11.967  0.0000E+00  0.4800E+02
    -11.867  0.0000E+00  0.4800E+02
    -11.766  0.0000E+00  0.4800E+02
    -11.665  0.0000E+00  0.4800E+02
    -11.565  0.0000E+00  0.4800E+02
    -11.464  0.0000E+00  0.4800E+02
    -11.364  0.0000E+00  0.4800E+02
    -11.263  0.0000E+00  0.4800E+02
    -11.162  0.0000E+00  0.4800E+02
    -11.062  0.0000E+00  0.4800E+02
    -10.961  0.0000E+00  0.4800E+02
    -10.861  0.0000E+00  0.4800E+02
    -10.760  0.0000E+00  0.4800E+02
    -10.660  0.0000E+00  0.4800E+02
    -10.559  0.3663E-13  0.4800E+02
    -10.458  0.9846E-09  0.4800E+02
    -10.358  0.3729E-05  0.4800E+02
    -10.257  0.2075E-02  0.4800E+02
    -10.157  0.1826E+00  0.4802E+02
    -10.056  0.2917E+01  0.4831E+02
     -9.955  0.1115E+02  0.4944E+02
     -9.855  0.1767E+02  0.5123E+02
     -9.754  0.2063E+02  0.5333E+02
     -9.654  0.2085E+02  0.5545E+02
     -9.553  0.2370E+02  0.5786E+02
     -9.453  0.3303E+02  0.6122E+02
     -9.352  0.4247E+02  0.6553E+02
     -9.251  0.4065E+02  0.6966E+02
     -9.151  0.3406E+02  0.7312E+02
     -9.050  0.3335E+02  0.7651E+02
     -8.950  0.3091E+02  0.7966E+02
     -8.849  0.2938E+02  0.8265E+02
     -8.748  0.3348E+02  0.8605E+02
     -8.648  0.3569E+02  0.8967E+02
     -8.547  0.3666E+02  0.9340E+02
     -8.447  0.2746E+02  0.9620E+02
     -8.346  0.1712E+02  0.9796E+02
     -8.246  0.1069E+02  0.9906E+02
     -8.145  0.3542E+01  0.9943E+02
     -8.044  0.1720E+01  0.9960E+02
     -7.944  0.3501E+01  0.9996E+02
     -7.843  0.5340E+01  0.1005E+03
     -7.743  0.5578E+01  0.1011E+03
     -7.642  0.5722E+01  0.1017E+03
     -7.541  0.7443E+01  0.1024E+03
     -7.441  0.1143E+02  0.1036E+03
     -7.340  0.1321E+02  0.1049E+03
     -7.240  0.1087E+02  0.1060E+03
     -7.139  0.9862E+01  0.1070E+03
     -7.039  0.1330E+02  0.1084E+03
     -6.938  0.2065E+02  0.1105E+03
     -6.837  0.2780E+02  0.1133E+03
     -6.737  0.3026E+02  0.1164E+03
     -6.636  0.3254E+02  0.1197E+03
     -6.536  0.3948E+02  0.1237E+03
     -6.435  0.5082E+02  0.1288E+03
     -6.334  0.5974E+02  0.1349E+03
     -6.234  0.6172E+02  0.1412E+03
     -6.133  0.6498E+02  0.1478E+03
     -6.033  0.7413E+02  0.1553E+03
     -5.932  0.8328E+02  0.1638E+03
     -5.832  0.8621E+02  0.1726E+03
     -5.731  0.8383E+02  0.1811E+03
     -5.630  0.7791E+02  0.1890E+03
     -5.530  0.6812E+02  0.1960E+03
     -5.429  0.5879E+02  0.2020E+03
     -5.329  0.5773E+02  0.2078E+03
     -5.228  0.5951E+02  0.2139E+03
     -5.127  0.5487E+02  0.2195E+03
     -5.027  0.4576E+02  0.2241E+03
     -4.926  0.4561E+02  0.2288E+03
     -4.826  0.4573E+02  0.2334E+03
     -4.725  0.4650E+02  0.2382E+03
     -4.624  0.6202E+02  0.2444E+03
     -4.524  0.7575E+02  0.2521E+03
     -4.423  0.7025E+02  0.2593E+03
     -4.323  0.5615E+02  0.2650E+03
     -4.222  0.5571E+02  0.2707E+03
     -4.122  0.7379E+02  0.2782E+03
     -4.021  0.9544E+02  0.2879E+03
     -3.920  0.1063E+03  0.2987E+03
     -3.820  0.1020E+03  0.3091E+03
     -3.719  0.9898E+02  0.3191E+03
     -3.619  0.1035E+03  0.3297E+03
     -3.518  0.1119E+03  0.3410E+03
     -3.417  0.1101E+03  0.3523E+03
     -3.317  0.9953E+02  0.3624E+03
     -3.216  0.9697E+02  0.3723E+03
     -3.116  0.9416E+02  0.3818E+03
     -3.015  0.1052E+03  0.3925E+03
     -2.915  0.9751E+02  0.4025E+03
     -2.814  0.7139E+02  0.4097E+03
     -2.713  0.5853E+02  0.4157E+03
     -2.613  0.4761E+02  0.4205E+03
     -2.512  0.4155E+02  0.4248E+03
     -2.412  0.4643E+02  0.4295E+03
     -2.311  0.5535E+02  0.4351E+03
     -2.210  0.6170E+02  0.4414E+03
     -2.110  0.6613E+02  0.4481E+03
     -2.009  0.7259E+02  0.4555E+03
     -1.909  0.7336E+02  0.4630E+03
     -1.808  0.6770E+02  0.4698E+03
     -1.708  0.5777E+02  0.4757E+03
     -1.607  0.5119E+02  0.4809E+03
     -1.506  0.5219E+02  0.4862E+03
     -1.406  0.4458E+02  0.4908E+03
     -1.305  0.4670E+02  0.4955E+03
     -1.205  0.5723E+02  0.5013E+03
     -1.104  0.5927E+02  0.5074E+03
     -1.003  0.6085E+02  0.5136E+03
     -0.903  0.6916E+02  0.5206E+03
     -0.802  0.7542E+02  0.5283E+03
     -0.702  0.8585E+02  0.5370E+03
     -0.601  0.9202E+02  0.5464E+03
     -0.501  0.8145E+02  0.5547E+03
     -0.400  0.6430E+02  0.5612E+03
     -0.299  0.5171E+02  0.5665E+03
     -0.199  0.4500E+02  0.5710E+03
     -0.098  0.2509E+02  0.5736E+03
      0.002  0.1552E+02  0.5752E+03
      0.103  0.1330E+02  0.5765E+03
      0.204  0.1100E+02  0.5776E+03
      0.304  0.1365E+02  0.5790E+03
      0.405  0.1550E+02  0.5806E+03
      0.505  0.1403E+02  0.5820E+03
      0.606  0.1465E+02  0.5835E+03
      0.706  0.1481E+02  0.5850E+03
      0.807  0.7955E+01  0.5858E+03
      0.908  0.7265E+01  0.5866E+03
      1.008  0.1172E+02  0.5878E+03
      1.109  0.9986E+01  0.5888E+03
      1.209  0.1105E+02  0.5899E+03
      1.310  0.1158E+02  0.5911E+03
      1.411  0.8391E+01  0.5919E+03
      1.511  0.1039E+02  0.5930E+03
      1.612  0.2066E+02  0.5951E+03
      1.712  0.2101E+02  0.5972E+03
      1.813  0.1008E+02  0.5983E+03
      1.913  0.6281E+01  0.5989E+03
      2.014  0.9657E+01  0.5999E+03
      2.115  0.1351E+02  0.6013E+03
      2.215  0.1628E+02  0.6029E+03
      2.316  0.1698E+02  0.6046E+03
      2.416  0.1781E+02  0.6065E+03
      2.517  0.1775E+02  0.6083E+03
      2.618  0.1672E+02  0.6100E+03
      2.718  0.1874E+02  0.6119E+03
      2.819  0.1849E+02  0.6138E+03
      2.919  0.1657E+02  0.6154E+03
      3.020  0.1522E+02  0.6170E+03
      3.121  0.1362E+02  0.6184E+03
      3.221  0.1584E+02  0.6200E+03
      3.322  0.2061E+02  0.6221E+03
      3.422  0.2198E+02  0.6243E+03
      3.523  0.2069E+02  0.6264E+03
      3.623  0.1845E+02  0.6283E+03
      3.724  0.1721E+02  0.6300E+03
      3.825  0.1316E+02  0.6314E+03
      3.925  0.1216E+02  0.6326E+03
      4.026  0.1680E+02  0.6343E+03
      4.126  0.2394E+02  0.6368E+03
      4.227  0.2501E+02  0.6393E+03
      4.328  0.2427E+02  0.6418E+03
      4.428  0.2773E+02  0.6446E+03
      4.529  0.2724E+02  0.6474E+03
      4.629  0.2163E+02  0.6496E+03
      4.730  0.1846E+02  0.6515E+03
      4.830  0.2061E+02  0.6535E+03
      4.931  0.2331E+02  0.6559E+03
      5.032  0.2150E+02  0.6581E+03
      5.132  0.1670E+02  0.6598E+03
      5.233  0.1307E+02  0.6611E+03
      5.333  0.7260E+01  0.6619E+03
      5.434  0.1318E+01  0.6620E+03
      5.535  0.5073E-01  0.6620E+03
      5.635  0.3371E-03  0.6620E+03
      5.736  0.3485E-06  0.6620E+03
      5.836  0.5310E-10  0.6620E+03
      5.937  0.1039E-14  0.6620E+03
      6.037  0.0000E+00  0.6620E+03
      6.138  0.0000E+00  0.6620E+03
      6.239  0.0000E+00  0.6620E+03
      6.339  0.0000E+00  0.6620E+03
      6.440  0.0000E+00  0.6620E+03
      6.540  0.0000E+00  0.6620E+03
      6.641  0.0000E+00  0.6620E+03
      6.65149670    -23.50617145  301     -0.55310155      1.00000000
    -23.506  0.0000E+00  0.0000E+00
    -23.406  0.0000E+00  0.0000E+00
    -23.305  0.0000E+00  0.0000E+00
    -23.205  0.0000E+00  0.0000E+00
    -23.104  0.0000E+00  0.0000E+00
    -23.004  0.0000E+00  0.0000E+00
    -22.903  0.0000E+00  0.0000E+00
    -22.802  0.0000E+00  0.0000E+00
    -22.702  0.9510E-15  0.9560E-16
    -22.601  0.4543E-10  0.4567E-11
    -22.501  0.2952E-06  0.2968E-07
    -22.400  0.2766E-03  0.2784E-04
    -22.300  0.3920E-01  0.3968E-02
    -22.199  0.9342E+00  0.9788E-01
    -22.099  0.4853E+01  0.5857E+00
    -21.998  0.1027E+02  0.1618E+01
    -21.898  0.1571E+02  0.3197E+01
    -21.797  0.1598E+02  0.4803E+01
    -21.697  0.1592E+02  0.6403E+01
    -21.596  0.1150E+02  0.7560E+01
    -21.496  0.1121E+02  0.8687E+01
    -21.395  0.1321E+02  0.1001E+02
    -21.295  0.1015E+02  0.1103E+02
    -21.194  0.4611E+01  0.1150E+02
    -21.094  0.9407E+01  0.1244E+02
    -20.993  0.1503E+02  0.1395E+02
    -20.893  0.1065E+02  0.1503E+02
    -20.792  0.3085E+01  0.1534E+02
    -20.691  0.2157E+01  0.1555E+02
    -20.591  0.3367E+01  0.1589E+02
    -20.490  0.1034E+01  0.1599E+02
    -20.390  0.5406E-01  0.1600E+02
    -20.289  0.4407E-03  0.1600E+02
    -20.189  0.5256E-06  0.1600E+02
    -20.088  0.8835E-10  0.1600E+02
    -19.988  0.1963E-14  0.1600E+02
    -19.887  0.0000E+00  0.1600E+02
    -19.787  0.0000E+00  0.1600E+02
    -19.686  0.0000E+00  0.1600E+02
    -19.586  0.0000E+00  0.1600E+02
    -19.485  0.0000E+00  0.1600E+02
    -19.385  0.0000E+00  0.1600E+02
    -19.284  0.0000E+00  0.1600E+02
    -19.184  0.0000E+00  0.1600E+02
    -19.083  0.0000E+00  0.1600E+02
    -18.983  0.0000E+00  0.1600E+02
    -18.882  0.0000E+00  0.1600E+02
    -18.781  0.0000E+00  0.1600E+02
    -18.681  0.0000E+00  0.1600E+02
    -18.580  0.0000E+00  0.1600E+02
    -18.480  0.0000E+00  0.1600E+02
    -18.379  0.0000E+00  0.1600E+02
    -18.279  0.0000E+00  0.1600E+02
    -18.178  0.0000E+00  0.1600E+02
    -18.078  0.0000E+00  0.1600E+02
    -17.977  0.0000E+00  0.1600E+02
    -17.877  0.0000E+00  0.1600E+02
    -17.776  0.0000E+00  0.1600E+02
    -17.676  0.0000E+00  0.1600E+02
    -17.575  0.0000E+00  0.1600E+02
    -17.475  0.0000E+00  0.1600E+02
    -17.374  0.0000E+00  0.1600E+02
    -17.274  0.0000E+00  0.1600E+02
    -17.173  0.0000E+00  0.1600E+02
    -17.073  0.0000E+00  0.1600E+02
    -16.972  0.0000E+00  0.1600E+02
    -16.871  0.0000E+00  0.1600E+02
    -16.771  0.0000E+00  0.1600E+02
    -16.670  0.0000E+00  0.1600E+02
    -16.570  0.0000E+00  0.1600E+02
    -16.469  0.0000E+00  0.1600E+02
    -16.369  0.0000E+00  0.1600E+02
    -16.268  0.0000E+00  0.1600E+02
    -16.168  0.0000E+00  0.1600E+02
    -16.067  0.0000E+00  0.1600E+02
    -15.967  0.0000E+00  0.1600E+02
    -15.866  0.0000E+00  0.1600E+02
    -15.766  0.0000E+00  0.1600E+02
    -15.665  0.0000E+00  0.1600E+02
    -15.565  0.0000E+00  0.1600E+02
    -15.464  0.0000E+00  0.1600E+02
    -15.364  0.0000E+00  0.1600E+02
    -15.263  0.0000E+00  0.1600E+02
    -15.163  0.0000E+00  0.1600E+02
    -15.062  0.0000E+00  0.1600E+02
    -14.961  0.0000E+00  0.1600E+02
    -14.861  0.0000E+00  0.1600E+02
    -14.760  0.0000E+00  0.1600E+02
    -14.660  0.0000E+00  0.1600E+02
    -14.559  0.0000E+00  0.1600E+02
    -14.459  0.0000E+00  0.1600E+02
    -14.358  0.0000E+00  0.1600E+02
    -14.258  0.0000E+00  0.1600E+02
    -14.157  0.0000E+00  0.1600E+02
    -14.057  0.0000E+00  0.1600E+02
    -13.956  0.0000E+00  0.1600E+02
    -13.856  0.0000E+00  0.1600E+02
    -13.755  0.0000E+00  0.1600E+02
    -13.655  0.0000E+00  0.1600E+02
    -13.554  0.0000E+00  0.1600E+02
    -13.454  0.0000E+00  0.1600E+02
    -13.353  0.0000E+00  0.1600E+02
    -13.253  0.0000E+00  0.1600E+02
    -13.152  0.0000E+00  0.1600E+02
    -13.052  0.0000E+00  0.1600E+02
    -12.951  0.0000E+00  0.1600E+02
    -12.850  0.0000E+00  0.1600E+02
    -12.750  0.0000E+00  0.1600E+02
    -12.649  0.0000E+00  0.1600E+02
    -12.549  0.0000E+00  0.1600E+02
    -12.448  0.0000E+00  0.1600E+02
    -12.348  0.0000E+00  0.1600E+02
    -12.247  0.0000E+00  0.1600E+02
    -12.147  0.0000E+00  0.1600E+02
    -12.046  0.0000E+00  0.1600E+02
    -11.946  0.0000E+00  0.1600E+02
    -11.845  0.0000E+00  0.1600E+02
    -11.745  0.0000E+00  0.1600E+02
    -11.644  0.0000E+00  0.1600E+02
    -11.544  0.0000E+00  0.1600E+02
    -11.443  0.0000E+00  0.1600E+02
    -11.343  0.0000E+00  0.1600E+02
    -11.242  0.0000E+00  0.1600E+02
    -11.142  0.0000E+00  0.1600E+02
    -11.041  0.0000E+00  0.1600E+02
    -10.940  0.0000E+00  0.1600E+02
    -10.840  0.0000E+00  0.1600E+02
    -10.739  0.0000E+00  0.1600E+02
    -10.639  0.0000E+00  0.1600E+02
    -10.538  0.7363E-15  0.1600E+02
    -10.438  0.4305E-10  0.1600E+02
    -10.337  0.3397E-06  0.1600E+02
    -10.237  0.3766E-03  0.1600E+02
    -10.136  0.6079E-01  0.1601E+02
    -10.036  0.1529E+01  0.1616E+02
     -9.935  0.6923E+01  0.1686E+02
     -9.835  0.8445E+01  0.1770E+02
     -9.734  0.8325E+01  0.1854E+02
     -9.634  0.1149E+02  0.1970E+02
     -9.533  0.8380E+01  0.2054E+02
     -9.433  0.4248E+01  0.2097E+02
     -9.332  0.1038E+02  0.2201E+02
     -9.232  0.1521E+02  0.2354E+02
     -9.131  0.1743E+02  0.2529E+02
     -9.030  0.1595E+02  0.2689E+02
     -8.930  0.1217E+02  0.2812E+02
     -8.829  0.9950E+01  0.2912E+02
     -8.729  0.1195E+02  0.3032E+02
     -8.628  0.1537E+02  0.3186E+02
     -8.528  0.9230E+01  0.3279E+02
     -8.427  0.2444E+01  0.3304E+02
     -8.327  0.1071E+01  0.3315E+02
     -8.226  0.2110E+00  0.3317E+02
     -8.126  0.1754E+00  0.3318E+02
     -8.025  0.1162E+01  0.3330E+02
     -7.925  0.2266E+01  0.3353E+02
     -7.824  0.2000E+01  0.3373E+02
     -7.724  0.1344E+01  0.3386E+02
     -7.623  0.1925E+01  0.3406E+02
     -7.523  0.2806E+01  0.3434E+02
     -7.422  0.3724E+01  0.3471E+02
     -7.322  0.4374E+01  0.3515E+02
     -7.221  0.4350E+01  0.3559E+02
     -7.121  0.5174E+01  0.3611E+02
     -7.020  0.7978E+01  0.3691E+02
     -6.919  0.1035E+02  0.3795E+02
     -6.819  0.9717E+01  0.3893E+02
     -6.718  0.9708E+01  0.3991E+02
     -6.618  0.1276E+02  0.4119E+02
     -6.517  0.1749E+02  0.4295E+02
     -6.417  0.2172E+02  0.4513E+02
     -6.316  0.2237E+02  0.4738E+02
     -6.216  0.2071E+02  0.4946E+02
     -6.115  0.2452E+02  0.5193E+02
     -6.015  0.2868E+02  0.5481E+02
     -5.914  0.2844E+02  0.5767E+02
     -5.814  0.2825E+02  0.6051E+02
     -5.713  0.2635E+02  0.6316E+02
     -5.613  0.2181E+02  0.6535E+02
     -5.512  0.1786E+02  0.6715E+02
     -5.412  0.1694E+02  0.6885E+02
     -5.311  0.1900E+02  0.7076E+02
     -5.211  0.1891E+02  0.7266E+02
     -5.110  0.1786E+02  0.7445E+02
     -5.009  0.1418E+02  0.7588E+02
     -4.909  0.1234E+02  0.7712E+02
     -4.808  0.1415E+02  0.7854E+02
     -4.708  0.2022E+02  0.8057E+02
     -4.607  0.2813E+02  0.8340E+02
     -4.507  0.2647E+02  0.8606E+02
     -4.406  0.1941E+02  0.8801E+02
     -4.306  0.1749E+02  0.8977E+02
     -4.205  0.2110E+02  0.9189E+02
     -4.105  0.3057E+02  0.9497E+02
     -4.004  0.3464E+02  0.9845E+02
     -3.904  0.3408E+02  0.1019E+03
     -3.803  0.3437E+02  0.1053E+03
     -3.703  0.3690E+02  0.1090E+03
     -3.602  0.3806E+02  0.1129E+03
     -3.502  0.3681E+02  0.1166E+03
     -3.401  0.3228E+02  0.1198E+03
     -3.301  0.2972E+02  0.1228E+03
     -3.200  0.3230E+02  0.1260E+03
     -3.099  0.3455E+02  0.1295E+03
     -2.999  0.3202E+02  0.1327E+03
     -2.898  0.2700E+02  0.1355E+03
     -2.798  0.2296E+02  0.1378E+03
     -2.697  0.1798E+02  0.1396E+03
     -2.597  0.1409E+02  0.1410E+03
     -2.496  0.1444E+02  0.1424E+03
     -2.396  0.1699E+02  0.1441E+03
     -2.295  0.1983E+02  0.1461E+03
     -2.195  0.2127E+02  0.1483E+03
     -2.094  0.2324E+02  0.1506E+03
     -1.994  0.2474E+02  0.1531E+03
     -1.893  0.2373E+02  0.1555E+03
     -1.793  0.2128E+02  0.1576E+03
     -1.692  0.1751E+02  0.1594E+03
     -1.592  0.1745E+02  0.1611E+03
     -1.491  0.1642E+02  0.1628E+03
     -1.391  0.1440E+02  0.1642E+03
     -1.290  0.1708E+02  0.1659E+03
     -1.189  0.1985E+02  0.1679E+03
     -1.089  0.1964E+02  0.1699E+03
     -0.988  0.2131E+02  0.1721E+03
     -0.888  0.2389E+02  0.1745E+03
     -0.787  0.2611E+02  0.1771E+03
     -0.687  0.3000E+02  0.1801E+03
     -0.586  0.2980E+02  0.1831E+03
     -0.486  0.2549E+02  0.1857E+03
     -0.385  0.1952E+02  0.1876E+03
     -0.285  0.1686E+02  0.1893E+03
     -0.184  0.1332E+02  0.1907E+03
     -0.084  0.6882E+01  0.1913E+03
      0.017  0.5048E+01  0.1919E+03
      0.117  0.4126E+01  0.1923E+03
      0.218  0.3772E+01  0.1926E+03
      0.318  0.4823E+01  0.1931E+03
      0.419  0.5119E+01  0.1936E+03
      0.519  0.4584E+01  0.1941E+03
      0.620  0.5011E+01  0.1946E+03
      0.720  0.4704E+01  0.1951E+03
      0.821  0.2236E+01  0.1953E+03
      0.922  0.2765E+01  0.1956E+03
      1.022  0.3966E+01  0.1960E+03
      1.123  0.3170E+01  0.1963E+03
      1.223  0.3839E+01  0.1967E+03
      1.324  0.3774E+01  0.1971E+03
      1.424  0.2669E+01  0.1973E+03
      1.525  0.3617E+01  0.1977E+03
      1.625  0.7396E+01  0.1984E+03
      1.726  0.6829E+01  0.1991E+03
      1.826  0.2903E+01  0.1994E+03
      1.927  0.1840E+01  0.1996E+03
      2.027  0.3287E+01  0.1999E+03
      2.128  0.4507E+01  0.2004E+03
      2.228  0.5631E+01  0.2010E+03
      2.329  0.5801E+01  0.2015E+03
      2.429  0.5974E+01  0.2021E+03
      2.530  0.5991E+01  0.2027E+03
      2.630  0.5232E+01  0.2033E+03
      2.731  0.6420E+01  0.2039E+03
      2.832  0.6245E+01  0.2045E+03
      2.932  0.5379E+01  0.2051E+03
      3.033  0.5068E+01  0.2056E+03
      3.133  0.4359E+01  0.2060E+03
      3.234  0.5204E+01  0.2066E+03
      3.334  0.7021E+01  0.2073E+03
      3.435  0.7377E+01  0.2080E+03
      3.535  0.6838E+01  0.2087E+03
      3.636  0.6076E+01  0.2093E+03
      3.736  0.6095E+01  0.2099E+03
      3.837  0.4211E+01  0.2103E+03
      3.937  0.3696E+01  0.2107E+03
      4.038  0.5108E+01  0.2112E+03
      4.138  0.8429E+01  0.2121E+03
      4.239  0.8226E+01  0.2129E+03
      4.339  0.7845E+01  0.2137E+03
      4.440  0.9644E+01  0.2147E+03
      4.540  0.9983E+01  0.2157E+03
      4.641  0.7425E+01  0.2164E+03
      4.742  0.5800E+01  0.2170E+03
      4.842  0.7106E+01  0.2177E+03
      4.943  0.8379E+01  0.2185E+03
      5.043  0.7233E+01  0.2193E+03
      5.144  0.6133E+01  0.2199E+03
      5.244  0.4816E+01  0.2204E+03
      5.345  0.2489E+01  0.2206E+03
      5.445  0.4269E+00  0.2207E+03
      5.546  0.1655E-01  0.2207E+03
      5.646  0.1200E-03  0.2207E+03
      5.747  0.1421E-06  0.2207E+03
      5.847  0.2515E-10  0.2207E+03
      5.948  0.6136E-15  0.2207E+03
      6.048  0.0000E+00  0.2207E+03
      6.149  0.0000E+00  0.2207E+03
      6.249  0.0000E+00  0.2207E+03
      6.350  0.0000E+00  0.2207E+03
      6.450  0.0000E+00  0.2207E+03
      6.551  0.0000E+00  0.2207E+03
      6.651  0.0000E+00  0.2207E+03
