       N       E                     dE             d eps       ncg     rms          rms(c)
DAV:   1     0.374570062488E+04    0.37457E+04   -0.21321E+05  4802   0.115E+03
DAV:   2    -0.141273653559E+03   -0.38870E+04   -0.36942E+04  5796   0.285E+02
DAV:   3    -0.559977432132E+03   -0.41870E+03   -0.40472E+03  5212   0.981E+01
DAV:   4    -0.574124978285E+03   -0.14148E+02   -0.14022E+02  5676   0.183E+01
DAV:   5    -0.574519092158E+03   -0.39411E+00   -0.39351E+00  6356   0.285E+00    0.687E+01
RMM:   6    -0.532997822279E+03    0.41521E+02   -0.17819E+02  4638   0.195E+01    0.444E+01
RMM:   7    -0.602907560909E+03   -0.69910E+02   -0.11471E+02  4666   0.122E+01    0.643E+01
RMM:   8    -0.576033785806E+03    0.26874E+02   -0.74044E+01  4639   0.906E+00    0.622E+01
RMM:   9    -0.536719869198E+03    0.39314E+02   -0.13698E+01  4644   0.474E+00    0.281E+01
RMM:  10    -0.542537998806E+03   -0.58181E+01   -0.43712E+01  4643   0.841E+00    0.462E+01
RMM:  11    -0.537468436223E+03    0.50696E+01   -0.12500E+01  4648   0.420E+00    0.318E+01
RMM:  12    -0.530590097549E+03    0.68783E+01   -0.77494E+00  4634   0.385E+00    0.150E+01
RMM:  13    -0.528776882829E+03    0.18132E+01   -0.38630E+00  4636   0.253E+00    0.908E+00
RMM:  14    -0.528365094126E+03    0.41179E+00   -0.84539E-01  4669   0.114E+00    0.623E+00
RMM:  15    -0.528262745621E+03    0.10235E+00   -0.18768E-01  4669   0.552E-01    0.466E+00
RMM:  16    -0.528237352058E+03    0.25394E-01   -0.86599E-02  4643   0.378E-01    0.450E+00
RMM:  17    -0.528178213546E+03    0.59139E-01   -0.13992E-01  4640   0.496E-01    0.358E+00
RMM:  18    -0.528120973332E+03    0.57240E-01   -0.13296E-01  4644   0.493E-01    0.229E+00
RMM:  19    -0.528078008356E+03    0.42965E-01   -0.41991E-02  4645   0.269E-01    0.122E+00
RMM:  20    -0.528060997501E+03    0.17011E-01   -0.12439E-02  4646   0.145E-01    0.851E-01
RMM:  21    -0.528053682683E+03    0.73148E-02   -0.68900E-03  4665   0.105E-01    0.811E-01
RMM:  22    -0.528038140396E+03    0.15542E-01   -0.83170E-03  4643   0.118E-01    0.602E-01
RMM:  23    -0.528027736040E+03    0.10404E-01   -0.53013E-03  4646   0.902E-02    0.365E-01
RMM:  24    -0.528024290021E+03    0.34460E-02   -0.16660E-03  4686   0.495E-02    0.283E-01
RMM:  25    -0.528019214100E+03    0.50759E-02   -0.16850E-03  4645   0.451E-02    0.208E-01
RMM:  26    -0.528013983779E+03    0.52303E-02   -0.18474E-03  4644   0.456E-02    0.212E-01
RMM:  27    -0.528008195273E+03    0.57885E-02   -0.23111E-03  4643   0.470E-02    0.180E-01
RMM:  28    -0.528006121959E+03    0.20733E-02   -0.75311E-04  4670   0.270E-02    0.154E-01
RMM:  29    -0.528003402420E+03    0.27195E-02   -0.99005E-04  4642   0.302E-02    0.128E-01
RMM:  30    -0.528001055302E+03    0.23471E-02   -0.99236E-04  4643   0.295E-02    0.107E-01
RMM:  31    -0.527999355883E+03    0.16994E-02   -0.78029E-04  4648   0.256E-02    0.100E-01
RMM:  32    -0.527998531206E+03    0.82468E-03   -0.40726E-04  4645   0.196E-02    0.845E-02
RMM:  33    -0.527997976929E+03    0.55428E-03   -0.18802E-04  4832   0.124E-02    0.753E-02
RMM:  34    -0.527997248850E+03    0.72808E-03   -0.22727E-04  4724   0.131E-02    0.654E-02
RMM:  35    -0.527996556441E+03    0.69241E-03   -0.27477E-04  4737   0.144E-02    0.558E-02
RMM:  36    -0.527995903000E+03    0.65344E-03   -0.37818E-04  4669   0.170E-02    0.433E-02
RMM:  37    -0.527995436747E+03    0.46625E-03   -0.34167E-04  4703   0.164E-02    0.303E-02
RMM:  38    -0.527995034544E+03    0.40220E-03   -0.41783E-04  4817   0.176E-02    0.207E-02
RMM:  39    -0.527994878418E+03    0.15613E-03   -0.23252E-04  4818   0.132E-02    0.135E-02
RMM:  40    -0.527994848374E+03    0.30045E-04   -0.99035E-05  4946   0.870E-03
    1 T=   309. E= -.54304252E+03 F= -.55859300E+03 E0= -.55839454E+03  EK= 0.33515E+01 SP= 0.12E+02 SK= 0.60E-02
       N       E                     dE             d eps       ncg     rms          rms(c)
DAV:   1    -0.527801548084E+03    0.19333E+00   -0.17510E+01  4812   0.683E+00    0.122E+00
RMM:   2    -0.527846186339E+03   -0.44638E-01   -0.51393E-01  4658   0.103E+00    0.840E-01
RMM:   3    -0.527851946055E+03   -0.57597E-02   -0.27167E-02  4649   0.231E-01    0.105E+00
RMM:   4    -0.527863777382E+03   -0.11831E-01   -0.19873E-02  4653   0.170E-01    0.140E+00
RMM:   5    -0.527847216651E+03    0.16561E-01   -0.12877E-02  4640   0.160E-01    0.742E-01
RMM:   6    -0.527843024399E+03    0.41923E-02   -0.42977E-03  4642   0.898E-02    0.313E-01
RMM:   7    -0.527843114576E+03   -0.90177E-04   -0.19817E-03  4639   0.591E-02    0.310E-01
RMM:   8    -0.527842565549E+03    0.54903E-03   -0.10066E-03  4644   0.452E-02    0.171E-01
RMM:   9    -0.527842352116E+03    0.21343E-03   -0.24096E-04  4650   0.212E-02    0.583E-02
RMM:  10    -0.527842339428E+03    0.12687E-04   -0.59519E-05  4645   0.104E-02
    2 T=   299. E= -.54302523E+03 F= -.55843692E+03 E0= -.55823842E+03  EK= 0.32430E+01 SP= 0.12E+02 SK= 0.56E-02
       N       E                     dE             d eps       ncg     rms          rms(c)
DAV:   1    -0.527501680336E+03    0.34067E+00   -0.29929E+01  5512   0.183E+01    0.795E-01
RMM:   2    -0.527900756026E+03   -0.39908E+00   -0.40205E+00  4643   0.288E+00    0.720E-01
RMM:   3    -0.527915673416E+03   -0.14917E-01   -0.11932E-01  4781   0.392E-01    0.127E+00
RMM:   4    -0.527900484024E+03    0.15189E-01   -0.19347E-02  4716   0.159E-01    0.613E-01
RMM:   5    -0.527899076643E+03    0.14074E-02   -0.49176E-03  4647   0.966E-02    0.544E-01
RMM:   6    -0.527898995294E+03    0.81349E-04   -0.39591E-03  4646   0.927E-02    0.506E-01
RMM:   7    -0.527897528677E+03    0.14666E-02   -0.19305E-03  4642   0.625E-02    0.223E-01
RMM:   8    -0.527897571867E+03   -0.43189E-04   -0.77341E-04  4645   0.387E-02
    3 T=   306. E= -.54302946E+03 F= -.55848803E+03 E0= -.55828924E+03  EK= 0.33203E+01 SP= 0.12E+02 SK= 0.54E-02
